 Entering Gaussian System, Link 0=/share/apps/gaussian/g09/g09
 Initial command:
 /share/apps/gaussian/g09/l1.exe "/scratch/2863144.phoenix.chem.wisc.edu/Gau-22864.inp" -scrdir="/scratch/2863144.phoenix.chem.wisc.edu/"
 Entering Link 1 = /share/apps/gaussian/g09/l1.exe PID=     22865.
  
 Copyright (c) 1988,1990,1992,1993,1995,1998,2003,2009,2013,
            Gaussian, Inc.  All Rights Reserved.
  
 This is part of the Gaussian(R) 09 program.  It is based on
 the Gaussian(R) 03 system (copyright 2003, Gaussian, Inc.),
 the Gaussian(R) 98 system (copyright 1998, Gaussian, Inc.),
 the Gaussian(R) 94 system (copyright 1995, Gaussian, Inc.),
 the Gaussian 92(TM) system (copyright 1992, Gaussian, Inc.),
 the Gaussian 90(TM) system (copyright 1990, Gaussian, Inc.),
 the Gaussian 88(TM) system (copyright 1988, Gaussian, Inc.),
 the Gaussian 86(TM) system (copyright 1986, Carnegie Mellon
 University), and the Gaussian 82(TM) system (copyright 1983,
 Carnegie Mellon University). Gaussian is a federally registered
 trademark of Gaussian, Inc.
  
 This software contains proprietary and confidential information,
 including trade secrets, belonging to Gaussian, Inc.
  
 This software is provided under written license and may be
 used, copied, transmitted, or stored only in accord with that
 written license.
  
 The following legend is applicable only to US Government
 contracts under FAR:
  
                    RESTRICTED RIGHTS LEGEND
  
 Use, reproduction and disclosure by the US Government is
 subject to restrictions as set forth in subparagraphs (a)
 and (c) of the Commercial Computer Software - Restricted
 Rights clause in FAR 52.227-19.
  
 Gaussian, Inc.
 340 Quinnipiac St., Bldg. 40, Wallingford CT 06492
  
  
 ---------------------------------------------------------------
 Warning -- This program may not be used in any manner that
 competes with the business of Gaussian, Inc. or will provide
 assistance to any competitor of Gaussian, Inc.  The licensee
 of this program is prohibited from giving any competitor of
 Gaussian, Inc. access to this program.  By using this program,
 the user acknowledges that Gaussian, Inc. is engaged in the
 business of creating and licensing software in the field of
 computational chemistry and represents and warrants to the
 licensee that it is not a competitor of Gaussian, Inc. and that
 it will not use this program in any manner prohibited above.
 ---------------------------------------------------------------
  

 Cite this work as:
 Gaussian 09, Revision D.01,
 M. J. Frisch, G. W. Trucks, H. B. Schlegel, G. E. Scuseria, 
 M. A. Robb, J. R. Cheeseman, G. Scalmani, V. Barone, B. Mennucci, 
 G. A. Petersson, H. Nakatsuji, M. Caricato, X. Li, H. P. Hratchian, 
 A. F. Izmaylov, J. Bloino, G. Zheng, J. L. Sonnenberg, M. Hada, 
 M. Ehara, K. Toyota, R. Fukuda, J. Hasegawa, M. Ishida, T. Nakajima, 
 Y. Honda, O. Kitao, H. Nakai, T. Vreven, J. A. Montgomery, Jr., 
 J. E. Peralta, F. Ogliaro, M. Bearpark, J. J. Heyd, E. Brothers, 
 K. N. Kudin, V. N. Staroverov, T. Keith, R. Kobayashi, J. Normand, 
 K. Raghavachari, A. Rendell, J. C. Burant, S. S. Iyengar, J. Tomasi, 
 M. Cossi, N. Rega, J. M. Millam, M. Klene, J. E. Knox, J. B. Cross, 
 V. Bakken, C. Adamo, J. Jaramillo, R. Gomperts, R. E. Stratmann, 
 O. Yazyev, A. J. Austin, R. Cammi, C. Pomelli, J. W. Ochterski, 
 R. L. Martin, K. Morokuma, V. G. Zakrzewski, G. A. Voth, 
 P. Salvador, J. J. Dannenberg, S. Dapprich, A. D. Daniels, 
 O. Farkas, J. B. Foresman, J. V. Ortiz, J. Cioslowski, 
 and D. J. Fox, Gaussian, Inc., Wallingford CT, 2013.
 
 ******************************************
 Gaussian 09:  EM64L-G09RevD.01 24-Apr-2013
                 9-Nov-2019 
 ******************************************
 %nproc=8
 Will use up to    8 processors via shared memory.
 %chk=emmim.chk
 %mem=1GB
 ------------------------------------
 #P pbe1pbe/aug-cc-pvtz symmetry=none
 ------------------------------------
 1/38=1/1;
 2/12=2,15=3,17=6,18=5,40=1/2;
 3/5=16,6=1,7=10,11=2,16=1,25=1,30=1,74=-13/1,2,3;
 4//1;
 5/5=2,38=5/2;
 6/7=2,8=2,9=2,10=2,28=1/1;
 99/5=1,9=1/99;
 Leave Link    1 at Sat Nov  9 23:34:13 2019, MaxMem=   134217728 cpu:         0.4
 (Enter /share/apps/gaussian/g09/l101.exe)
 --------------------
 Ionization potential
 --------------------
 Symbolic Z-matrix:
 Charge =  1 Multiplicity = 1
 C                     1.15302   0.5293   -0.12557 
 N                     2.37668  -0.01518   0.10248 
 C                     2.28733  -1.39472   0.00479 
 C                     0.98127  -1.69447  -0.29013 
 N                     0.29656  -0.49395  -0.37167 
 C                    -1.15267  -0.36783  -0.62572 
 C                    -1.99397  -0.5025    0.64068 
 H                    -1.84313  -1.48643   1.12682 
 H                    -1.76195   0.29086   1.37886 
 H                    -1.3178    0.60684  -1.12423 
 H                    -1.4107   -1.1503   -1.36625 
 H                     0.49002  -2.659    -0.4524 
 H                     3.15501  -2.04622   0.148 
 C                     3.60526   0.72865   0.39108 
 H                     3.48734   1.33105   1.31201 
 H                     4.42416   0.00489   0.54579 
 H                     3.86931   1.38838  -0.45735 
 C                     0.81658   1.97699  -0.13559 
 H                     0.59526   2.33075  -1.16504 
 H                    -0.07148   2.18853   0.49225 
 H                     1.65572   2.58095   0.2526 
 H                    -3.06612  -0.41652   0.37715 
 
 NAtoms=     22 NQM=       22 NQMF=       0 NMMI=      0 NMMIF=      0
                NMic=       0 NMicF=      0.
                    Isotopes and Nuclear Properties:
 (Nuclear quadrupole moments (NQMom) in fm**2, nuclear magnetic moments (NMagM)
  in nuclear magnetons)

  Atom         1           2           3           4           5           6           7           8           9          10
 IAtWgt=          12          14          12          12          14          12          12           1           1           1
 AtmWgt=  12.0000000  14.0030740  12.0000000  12.0000000  14.0030740  12.0000000  12.0000000   1.0078250   1.0078250   1.0078250
 NucSpn=           0           2           0           0           2           0           0           1           1           1
 AtZEff=   0.0000000   0.0000000   0.0000000   0.0000000   0.0000000   0.0000000   0.0000000   0.0000000   0.0000000   0.0000000
 NQMom=    0.0000000   2.0440000   0.0000000   0.0000000   2.0440000   0.0000000   0.0000000   0.0000000   0.0000000   0.0000000
 NMagM=    0.0000000   0.4037610   0.0000000   0.0000000   0.4037610   0.0000000   0.0000000   2.7928460   2.7928460   2.7928460
 AtZNuc=   6.0000000   7.0000000   6.0000000   6.0000000   7.0000000   6.0000000   6.0000000   1.0000000   1.0000000   1.0000000

  Atom        11          12          13          14          15          16          17          18          19          20
 IAtWgt=           1           1           1          12           1           1           1          12           1           1
 AtmWgt=   1.0078250   1.0078250   1.0078250  12.0000000   1.0078250   1.0078250   1.0078250  12.0000000   1.0078250   1.0078250
 NucSpn=           1           1           1           0           1           1           1           0           1           1
 AtZEff=   0.0000000   0.0000000   0.0000000   0.0000000   0.0000000   0.0000000   0.0000000   0.0000000   0.0000000   0.0000000
 NQMom=    0.0000000   0.0000000   0.0000000   0.0000000   0.0000000   0.0000000   0.0000000   0.0000000   0.0000000   0.0000000
 NMagM=    2.7928460   2.7928460   2.7928460   0.0000000   2.7928460   2.7928460   2.7928460   0.0000000   2.7928460   2.7928460
 AtZNuc=   1.0000000   1.0000000   1.0000000   6.0000000   1.0000000   1.0000000   1.0000000   6.0000000   1.0000000   1.0000000

  Atom        21          22
 IAtWgt=           1           1
 AtmWgt=   1.0078250   1.0078250
 NucSpn=           1           1
 AtZEff=   0.0000000   0.0000000
 NQMom=    0.0000000   0.0000000
 NMagM=    2.7928460   2.7928460
 AtZNuc=   1.0000000   1.0000000
 Leave Link  101 at Sat Nov  9 23:34:13 2019, MaxMem=   134217728 cpu:         0.7
 (Enter /share/apps/gaussian/g09/l202.exe)
                          Input orientation:                          
 ---------------------------------------------------------------------
 Center     Atomic      Atomic             Coordinates (Angstroms)
 Number     Number       Type             X           Y           Z
 ---------------------------------------------------------------------
      1          6           0        1.153025    0.529296   -0.125574
      2          7           0        2.376677   -0.015185    0.102483
      3          6           0        2.287328   -1.394717    0.004786
      4          6           0        0.981266   -1.694465   -0.290131
      5          7           0        0.296556   -0.493954   -0.371674
      6          6           0       -1.152670   -0.367835   -0.625721
      7          6           0       -1.993974   -0.502499    0.640679
      8          1           0       -1.843134   -1.486425    1.126822
      9          1           0       -1.761954    0.290859    1.378861
     10          1           0       -1.317798    0.606843   -1.124228
     11          1           0       -1.410697   -1.150298   -1.366254
     12          1           0        0.490024   -2.659004   -0.452403
     13          1           0        3.155008   -2.046219    0.147995
     14          6           0        3.605264    0.728650    0.391078
     15          1           0        3.487340    1.331051    1.312009
     16          1           0        4.424160    0.004891    0.545792
     17          1           0        3.869311    1.388383   -0.457348
     18          6           0        0.816585    1.976987   -0.135590
     19          1           0        0.595259    2.330751   -1.165042
     20          1           0       -0.071480    2.188527    0.492251
     21          1           0        1.655723    2.580954    0.252603
     22          1           0       -3.066119   -0.416520    0.377146
 ---------------------------------------------------------------------
                    Distance matrix (angstroms):
                    1          2          3          4          5
     1  C    0.000000
     2  N    1.358600   0.000000
     3  C    2.237290   1.385871   0.000000
     4  C    2.236447   2.218401   1.372088   0.000000
     5  N    1.356889   2.186538   2.217267   1.384451   0.000000
     6  C    2.524127   3.620902   3.644943   2.535005   1.476719
     7  C    3.399316   4.430544   4.419272   3.337550   2.504288
     8  H    3.822119   4.584825   4.281132   3.166744   2.794416
     9  H    3.288963   4.341782   4.596296   3.775222   2.813853
    10  H    2.666137   3.942192   4.275260   3.358188   2.093855
    11  H    3.306508   4.217804   3.951567   2.678739   2.081991
    12  H    3.272866   3.295017   2.244492   1.094525   2.175176
    13  H    3.273538   2.175539   1.094455   2.245182   3.293984
    14  C    2.513990   1.464924   2.528807   3.636056   3.608892
    15  H    2.856306   2.123412   3.252487   4.242760   4.043085
    16  H    3.380245   2.095021   2.611061   3.929389   4.257664
    17  H    2.868155   2.123998   3.234483   4.227614   4.039197
    18  C    1.486304   2.541518   3.681192   3.678391   2.536082
    19  H    2.153331   3.206787   4.255668   4.137250   2.949172
    20  H    2.152711   3.316886   4.317550   4.098539   2.842098
    21  H    2.145931   2.698563   4.033150   4.362185   3.419373
    22  H    4.352984   5.464479   5.454807   4.296478   3.445912
                    6          7          8          9         10
     6  C    0.000000
     7  C    1.526334   0.000000
     8  H    2.190751   1.107790   0.000000
     9  H    2.196236   1.108225   1.796901   0.000000
    10  H    1.107147   2.191518   3.118489   2.561753   0.000000
    11  H    1.107798   2.188066   2.552530   3.120251   1.776162
    12  H    2.824525   3.466351   3.051642   4.138433   3.792799
    13  H    4.687398   5.397946   5.123757   5.581530   5.353810
    14  C    4.987393   5.738422   5.927302   5.474888   5.152429
    15  H    5.307608   5.818711   6.032116   5.351781   5.435907
    16  H    5.710726   6.438858   6.468430   6.248503   6.010107
    17  H    5.322869   6.257732   6.588333   6.023900   5.287875
    18  C    3.101028   3.827491   4.545658   3.432994   2.722184
    19  H    3.260136   4.241705   5.076340   4.023562   2.575521
    20  H    2.992293   3.310534   4.128766   2.691639   2.582254
    21  H    4.165798   4.793597   5.435975   4.265385   3.825520
    22  H    2.160879   1.107401   1.789526   1.790158   2.521512
                   11         12         13         14         15
    11  H    0.000000
    12  H    2.593079   0.000000
    13  H    4.892983   2.799665   0.000000
    14  C    5.637244   4.678929   2.821651   0.000000
    15  H    6.109088   5.293165   3.587662   1.106755   0.000000
    16  H    6.247875   4.854910   2.444594   1.103791   1.795389
    17  H    5.928701   5.272660   3.559938   1.106705   1.811025
    18  C    4.031777   4.658264   4.662062   3.100396   3.105755
    19  H    4.022692   5.041487   5.237771   3.748115   3.936917
    20  H    4.049110   4.970535   5.334961   3.957262   3.751329
    21  H    5.093709   5.414152   4.865133   2.692752   2.457523
    22  H    2.513621   4.285212   6.435126   6.768970   6.846591
                   16         17         18         19         20
    16  H    0.000000
    17  H    1.796719   0.000000
    18  C    4.167498   3.125559   0.000000
    19  H    4.795525   3.479699   1.110812   0.000000
    20  H    4.998191   4.131804   1.107968   1.792035   0.000000
    21  H    3.792928   2.612705   1.104366   1.787988   1.787362
    22  H    7.504019   7.214863   4.589898   4.830272   3.970816
                   21         22
    21  H    0.000000
    22  H    5.594296   0.000000
 Symmetry turned off by external request.
 Stoichiometry    C7H13N2
 Rotational constants (GHZ):      2.8748956      1.2435130      0.9487887
 Leave Link  202 at Sat Nov  9 23:34:13 2019, MaxMem=   134217728 cpu:         0.0
 (Enter /share/apps/gaussian/g09/l301.exe)
 Standard basis: Aug-CC-pVTZ (5D, 7F)
 Ernie: Thresh=  0.10000D-02 Tol=  0.10000D-05 Strict=F.
 Ernie:  27 primitive shells out of 413 were deleted.
   713 basis functions,   999 primitive gaussians,   820 cartesian basis functions
    34 alpha electrons       34 beta electrons
       nuclear repulsion energy       469.4079412546 Hartrees.
 IExCor= 1009 DFT=T Ex+Corr=PBE1PBE ExCW=0 ScaHFX=  0.250000
 ScaDFX=  0.750000  0.750000  1.000000  1.000000 ScalE2=  1.000000  1.000000
 IRadAn=      0 IRanWt=     -1 IRanGd=            0 ICorTp=0 IEmpDi=  4
 NAtoms=   22 NActive=   22 NUniq=   22 SFac= 1.00D+00 NAtFMM=   60 NAOKFM=F Big=F
 Integral buffers will be    131072 words long.
 Raffenetti 2 integral format.
 Two-electron integral symmetry is turned off.
 Leave Link  301 at Sat Nov  9 23:34:13 2019, MaxMem=   134217728 cpu:         0.6
 (Enter /share/apps/gaussian/g09/l302.exe)
 NPDir=0 NMtPBC=     1 NCelOv=     1 NCel=       1 NClECP=     1 NCelD=      1
         NCelK=      1 NCelE2=     1 NClLst=     1 CellRange=     0.0.
 One-electron integrals computed using PRISM.
 NBasis=   713 RedAO= T EigKep=  1.14D-06  NBF=   713
 NBsUse=   713 1.00D-06 EigRej= -1.00D+00 NBFU=   713
 Precomputing XC quadrature grid using
 IXCGrd= 4 IRadAn=           0 IRanWt=          -1 IRanGd=           0 AccXCQ= 0.00D+00.
 Generated NRdTot=       0 NPtTot=           0 NUsed=           0 NTot=          32
 NSgBfM=   820   820   820   820   820 MxSgAt=    22 MxSgA2=    22.
 Leave Link  302 at Sat Nov  9 23:34:15 2019, MaxMem=   134217728 cpu:        12.1
 (Enter /share/apps/gaussian/g09/l303.exe)
 DipDrv:  MaxL=1.
 Leave Link  303 at Sat Nov  9 23:34:15 2019, MaxMem=   134217728 cpu:         1.7
 (Enter /share/apps/gaussian/g09/l401.exe)
 ExpMin= 2.53D-02 ExpMax= 1.14D+04 ExpMxC= 3.89D+02 IAcc=3 IRadAn=         5 AccDes= 0.00D+00
 Harris functional with IExCor= 1009 and IRadAn=       5 diagonalized for initial guess.
 HarFok:  IExCor= 1009 AccDes= 0.00D+00 IRadAn=         5 IDoV= 1 UseB2=F ITyADJ=14
 ICtDFT=  3500011 ScaDFX=  1.000000  1.000000  1.000000  1.000000
 FoFCou: FMM=F IPFlag=           0 FMFlag=      100000 FMFlg1=           0
         NFxFlg=           0 DoJE=T BraDBF=F KetDBF=T FulRan=T
         wScrn=  0.000000 ICntrl=     500 IOpCl=  0 I1Cent=   200000004 NGrid=           0
         NMat0=    1 NMatS0=      1 NMatT0=    0 NMatD0=    1 NMtDS0=    0 NMtDT0=    0
 Symmetry not used in FoFCou.
 Harris En= -383.668214487734    
 JPrj=0 DoOrth=F DoCkMO=F.
 Leave Link  401 at Sat Nov  9 23:34:27 2019, MaxMem=   134217728 cpu:        92.3
 (Enter /share/apps/gaussian/g09/l502.exe)
 Closed shell SCF:
 Using DIIS extrapolation, IDIIS=  1040.
 Two-electron integral symmetry not used.
 IVT=     2047274 IEndB=     2047274 NGot=   134217728 MDV=   132860315
 LenX=   132860315 LenY=   132187095
 Requested convergence on RMS density matrix=1.00D-08 within 128 cycles.
 Requested convergence on MAX density matrix=1.00D-06.
 Requested convergence on             energy=1.00D-06.
 No special actions if energy rises.
 Fock matrices will be formed incrementally for  20 cycles.

 Cycle   1  Pass 1  IDiag  1:
 FoFJK:  IHMeth= 1 ICntrl=       0 DoSepK=F KAlg= 0 I1Cent=   0 FoldK=F
 IRaf= 960000000 NMat=   1 IRICut=       1 DoRegI=T DoRafI=F ISym2E= 0.
 FoFCou: FMM=F IPFlag=           0 FMFlag=      100000 FMFlg1=           0
         NFxFlg=           0 DoJE=F BraDBF=F KetDBF=F FulRan=T
         wScrn=  0.000000 ICntrl=       0 IOpCl=  0 I1Cent=           0 NGrid=           0
         NMat0=    1 NMatS0=      1 NMatT0=    0 NMatD0=    1 NMtDS0=    0 NMtDT0=    0
 Symmetry not used in FoFCou.
 E= -383.350166188952    
 DIIS: error= 1.52D-02 at cycle   1 NSaved=   1.
 NSaved= 1 IEnMin= 1 EnMin= -383.350166188952     IErMin= 1 ErrMin= 1.52D-02
 ErrMax= 1.52D-02  0.00D+00 EMaxC= 1.00D-01 BMatC= 2.28D-01 BMatP= 2.28D-01
 IDIUse=3 WtCom= 8.48D-01 WtEn= 1.52D-01
 Coeff-Com:  0.100D+01
 Coeff-En:   0.100D+01
 Coeff:      0.100D+01
 Gap=     0.217 Goal=   None    Shift=    0.000
 GapD=    0.217 DampG=1.000 DampE=0.500 DampFc=0.5000 IDamp=-1.
 Damping current iteration by 5.00D-01
 RMSDP=1.29D-03 MaxDP=8.06D-02              OVMax= 1.49D-01

 Cycle   2  Pass 1  IDiag  1:
 RMSU=  6.44D-04    CP:  9.92D-01
 E= -383.439432556417     Delta-E=       -0.089266367465 Rises=F Damp=T
 DIIS: error= 2.51D-03 at cycle   2 NSaved=   2.
 NSaved= 2 IEnMin= 2 EnMin= -383.439432556417     IErMin= 2 ErrMin= 2.51D-03
 ErrMax= 2.51D-03  0.00D+00 EMaxC= 1.00D-01 BMatC= 1.96D-02 BMatP= 2.28D-01
 IDIUse=3 WtCom= 9.75D-01 WtEn= 2.51D-02
 Coeff-Com: -0.718D-02 0.101D+01
 Coeff-En:   0.387D-01 0.961D+00
 Coeff:     -0.603D-02 0.101D+01
 Gap=     0.263 Goal=   None    Shift=    0.000
 RMSDP=6.07D-04 MaxDP=6.51D-02 DE=-8.93D-02 OVMax= 1.15D-01

 Cycle   3  Pass 1  IDiag  1:
 RMSU=  5.24D-04    CP:  9.99D-01  1.47D+00
 E= -383.533269493646     Delta-E=       -0.093836937229 Rises=F Damp=F
 DIIS: error= 3.46D-03 at cycle   3 NSaved=   3.
 NSaved= 3 IEnMin= 3 EnMin= -383.533269493646     IErMin= 2 ErrMin= 2.51D-03
 ErrMax= 3.46D-03  0.00D+00 EMaxC= 1.00D-01 BMatC= 9.05D-03 BMatP= 1.96D-02
 IDIUse=3 WtCom= 9.65D-01 WtEn= 3.46D-02
 Coeff-Com: -0.700D-01 0.412D+00 0.658D+00
 Coeff-En:   0.000D+00 0.000D+00 0.100D+01
 Coeff:     -0.675D-01 0.398D+00 0.670D+00
 Gap=     0.244 Goal=   None    Shift=    0.000
 RMSDP=1.88D-04 MaxDP=1.67D-02 DE=-9.38D-02 OVMax= 4.49D-02

 Cycle   4  Pass 1  IDiag  1:
 RMSU=  1.56D-04    CP:  1.00D+00  1.59D+00  8.84D-01
 E= -383.538712107620     Delta-E=       -0.005442613974 Rises=F Damp=F
 DIIS: error= 1.62D-03 at cycle   4 NSaved=   4.
 NSaved= 4 IEnMin= 4 EnMin= -383.538712107620     IErMin= 4 ErrMin= 1.62D-03
 ErrMax= 1.62D-03  0.00D+00 EMaxC= 1.00D-01 BMatC= 2.69D-03 BMatP= 9.05D-03
 IDIUse=3 WtCom= 9.84D-01 WtEn= 1.62D-02
 Coeff-Com: -0.359D-01 0.106D+00 0.390D+00 0.539D+00
 Coeff-En:   0.000D+00 0.000D+00 0.263D+00 0.737D+00
 Coeff:     -0.353D-01 0.105D+00 0.388D+00 0.542D+00
 Gap=     0.251 Goal=   None    Shift=    0.000
 RMSDP=7.45D-05 MaxDP=7.95D-03 DE=-5.44D-03 OVMax= 2.24D-02

 Cycle   5  Pass 1  IDiag  1:
 RMSU=  4.53D-05    CP:  1.00D+00  1.55D+00  9.20D-01  6.77D-01
 E= -383.541334641292     Delta-E=       -0.002622533672 Rises=F Damp=F
 DIIS: error= 2.76D-04 at cycle   5 NSaved=   5.
 NSaved= 5 IEnMin= 5 EnMin= -383.541334641292     IErMin= 5 ErrMin= 2.76D-04
 ErrMax= 2.76D-04  0.00D+00 EMaxC= 1.00D-01 BMatC= 9.51D-05 BMatP= 2.69D-03
 IDIUse=3 WtCom= 9.97D-01 WtEn= 2.76D-03
 Coeff-Com: -0.131D-01 0.279D-01 0.148D+00 0.265D+00 0.573D+00
 Coeff-En:   0.000D+00 0.000D+00 0.000D+00 0.000D+00 0.100D+01
 Coeff:     -0.130D-01 0.278D-01 0.147D+00 0.264D+00 0.574D+00
 Gap=     0.249 Goal=   None    Shift=    0.000
 RMSDP=1.67D-05 MaxDP=9.82D-04 DE=-2.62D-03 OVMax= 4.31D-03

 Cycle   6  Pass 1  IDiag  1:
 RMSU=  1.21D-05    CP:  1.00D+00  1.56D+00  9.15D-01  6.82D-01  7.84D-01
 E= -383.541416414238     Delta-E=       -0.000081772946 Rises=F Damp=F
 DIIS: error= 7.58D-05 at cycle   6 NSaved=   6.
 NSaved= 6 IEnMin= 6 EnMin= -383.541416414238     IErMin= 6 ErrMin= 7.58D-05
 ErrMax= 7.58D-05  0.00D+00 EMaxC= 1.00D-01 BMatC= 9.65D-06 BMatP= 9.51D-05
 IDIUse=1 WtCom= 1.00D+00 WtEn= 0.00D+00
 Coeff-Com: -0.419D-02 0.728D-02 0.483D-01 0.103D+00 0.311D+00 0.535D+00
 Coeff:     -0.419D-02 0.728D-02 0.483D-01 0.103D+00 0.311D+00 0.535D+00
 Gap=     0.249 Goal=   None    Shift=    0.000
 RMSDP=4.49D-06 MaxDP=3.40D-04 DE=-8.18D-05 OVMax= 1.20D-03

 Cycle   7  Pass 1  IDiag  1:
 RMSU=  3.74D-06    CP:  1.00D+00  1.56D+00  9.17D-01  6.83D-01  7.86D-01
                    CP:  8.26D-01
 E= -383.541424727011     Delta-E=       -0.000008312773 Rises=F Damp=F
 DIIS: error= 2.06D-05 at cycle   7 NSaved=   7.
 NSaved= 7 IEnMin= 7 EnMin= -383.541424727011     IErMin= 7 ErrMin= 2.06D-05
 ErrMax= 2.06D-05  0.00D+00 EMaxC= 1.00D-01 BMatC= 6.29D-07 BMatP= 9.65D-06
 IDIUse=1 WtCom= 1.00D+00 WtEn= 0.00D+00
 Coeff-Com: -0.101D-02 0.124D-02 0.120D-01 0.300D-01 0.104D+00 0.265D+00
 Coeff-Com:  0.589D+00
 Coeff:     -0.101D-02 0.124D-02 0.120D-01 0.300D-01 0.104D+00 0.265D+00
 Coeff:      0.589D+00
 Gap=     0.249 Goal=   None    Shift=    0.000
 RMSDP=1.21D-06 MaxDP=8.18D-05 DE=-8.31D-06 OVMax= 2.69D-04

 Cycle   8  Pass 1  IDiag  1:
 RMSU=  1.16D-06    CP:  1.00D+00  1.56D+00  9.17D-01  6.85D-01  7.90D-01
                    CP:  8.30D-01  9.82D-01
 E= -383.541425166183     Delta-E=       -0.000000439171 Rises=F Damp=F
 DIIS: error= 1.15D-05 at cycle   8 NSaved=   8.
 NSaved= 8 IEnMin= 8 EnMin= -383.541425166183     IErMin= 8 ErrMin= 1.15D-05
 ErrMax= 1.15D-05  0.00D+00 EMaxC= 1.00D-01 BMatC= 1.15D-07 BMatP= 6.29D-07
 IDIUse=1 WtCom= 1.00D+00 WtEn= 0.00D+00
 Coeff-Com:  0.117D-03-0.489D-03-0.110D-02 0.194D-03 0.501D-02 0.667D-01
 Coeff-Com:  0.328D+00 0.602D+00
 Coeff:      0.117D-03-0.489D-03-0.110D-02 0.194D-03 0.501D-02 0.667D-01
 Coeff:      0.328D+00 0.602D+00
 Gap=     0.249 Goal=   None    Shift=    0.000
 RMSDP=5.32D-07 MaxDP=3.18D-05 DE=-4.39D-07 OVMax= 1.53D-04

 Cycle   9  Pass 1  IDiag  1:
 RMSU=  4.17D-07    CP:  1.00D+00  1.56D+00  9.17D-01  6.85D-01  7.90D-01
                    CP:  8.41D-01  9.99D-01  7.59D-01
 E= -383.541425262303     Delta-E=       -0.000000096121 Rises=F Damp=F
 DIIS: error= 3.71D-06 at cycle   9 NSaved=   9.
 NSaved= 9 IEnMin= 9 EnMin= -383.541425262303     IErMin= 9 ErrMin= 3.71D-06
 ErrMax= 3.71D-06  0.00D+00 EMaxC= 1.00D-01 BMatC= 2.10D-08 BMatP= 1.15D-07
 IDIUse=1 WtCom= 1.00D+00 WtEn= 0.00D+00
 Coeff-Com:  0.150D-03-0.360D-03-0.162D-02-0.243D-02-0.666D-02 0.185D-01
 Coeff-Com:  0.130D+00 0.358D+00 0.504D+00
 Coeff:      0.150D-03-0.360D-03-0.162D-02-0.243D-02-0.666D-02 0.185D-01
 Coeff:      0.130D+00 0.358D+00 0.504D+00
 Gap=     0.249 Goal=   None    Shift=    0.000
 RMSDP=2.11D-07 MaxDP=2.01D-05 DE=-9.61D-08 OVMax= 6.00D-05

 Cycle  10  Pass 1  IDiag  1:
 RMSU=  1.57D-07    CP:  1.00D+00  1.56D+00  9.17D-01  6.85D-01  7.91D-01
                    CP:  8.48D-01  1.00D+00  8.12D-01  8.27D-01
 E= -383.541425280706     Delta-E=       -0.000000018403 Rises=F Damp=F
 DIIS: error= 1.15D-06 at cycle  10 NSaved=  10.
 NSaved=10 IEnMin=10 EnMin= -383.541425280706     IErMin=10 ErrMin= 1.15D-06
 ErrMax= 1.15D-06  0.00D+00 EMaxC= 1.00D-01 BMatC= 1.42D-09 BMatP= 2.10D-08
 IDIUse=1 WtCom= 1.00D+00 WtEn= 0.00D+00
 Coeff-Com:  0.619D-04-0.122D-03-0.714D-03-0.135D-02-0.460D-02 0.963D-03
 Coeff-Com:  0.116D-01 0.843D-01 0.242D+00 0.668D+00
 Coeff:      0.619D-04-0.122D-03-0.714D-03-0.135D-02-0.460D-02 0.963D-03
 Coeff:      0.116D-01 0.843D-01 0.242D+00 0.668D+00
 Gap=     0.249 Goal=   None    Shift=    0.000
 RMSDP=7.99D-08 MaxDP=1.21D-05 DE=-1.84D-08 OVMax= 6.42D-06

 Cycle  11  Pass 1  IDiag  1:
 RMSU=  5.50D-08    CP:  1.00D+00  1.56D+00  9.17D-01  6.85D-01  7.92D-01
                    CP:  8.50D-01  1.01D+00  8.26D-01  8.67D-01  9.91D-01
 E= -383.541425281870     Delta-E=       -0.000000001164 Rises=F Damp=F
 DIIS: error= 2.45D-07 at cycle  11 NSaved=  11.
 NSaved=11 IEnMin=11 EnMin= -383.541425281870     IErMin=11 ErrMin= 2.45D-07
 ErrMax= 2.45D-07  0.00D+00 EMaxC= 1.00D-01 BMatC= 6.77D-11 BMatP= 1.42D-09
 IDIUse=1 WtCom= 1.00D+00 WtEn= 0.00D+00
 Coeff-Com:  0.586D-05-0.537D-05-0.932D-04-0.225D-03-0.101D-02-0.584D-03
 Coeff-Com: -0.935D-02-0.562D-02 0.441D-01 0.200D+00 0.773D+00
 Coeff:      0.586D-05-0.537D-05-0.932D-04-0.225D-03-0.101D-02-0.584D-03
 Coeff:     -0.935D-02-0.562D-02 0.441D-01 0.200D+00 0.773D+00
 Gap=     0.249 Goal=   None    Shift=    0.000
 RMSDP=2.15D-08 MaxDP=2.60D-06 DE=-1.16D-09 OVMax= 3.67D-06

 Cycle  12  Pass 1  IDiag  1:
 RMSU=  1.44D-08    CP:  1.00D+00  1.56D+00  9.17D-01  6.85D-01  7.92D-01
                    CP:  8.51D-01  1.01D+00  8.29D-01  8.81D-01  1.03D+00
                    CP:  1.06D+00
 E= -383.541425281942     Delta-E=       -0.000000000072 Rises=F Damp=F
 DIIS: error= 7.48D-08 at cycle  12 NSaved=  12.
 NSaved=12 IEnMin=12 EnMin= -383.541425281942     IErMin=12 ErrMin= 7.48D-08
 ErrMax= 7.48D-08  0.00D+00 EMaxC= 1.00D-01 BMatC= 8.40D-12 BMatP= 6.77D-11
 IDIUse=1 WtCom= 1.00D+00 WtEn= 0.00D+00
 Coeff-Com: -0.258D-05 0.786D-05 0.169D-04 0.178D-04-0.444D-04-0.186D-03
 Coeff-Com: -0.471D-02-0.891D-02-0.101D-02 0.135D-01 0.325D+00 0.676D+00
 Coeff:     -0.258D-05 0.786D-05 0.169D-04 0.178D-04-0.444D-04-0.186D-03
 Coeff:     -0.471D-02-0.891D-02-0.101D-02 0.135D-01 0.325D+00 0.676D+00
 Gap=     0.249 Goal=   None    Shift=    0.000
 RMSDP=4.81D-09 MaxDP=4.49D-07 DE=-7.24D-11 OVMax= 6.02D-07

 SCF Done:  E(RPBE1PBE) =  -383.541425282     A.U. after   12 cycles
            NFock= 12  Conv=0.48D-08     -V/T= 2.0077
 KE= 3.806105916039D+02 PE=-1.815851000511D+03 EE= 5.822910423705D+02
 Leave Link  502 at Sun Nov 10 00:04:55 2019, MaxMem=   134217728 cpu:     14620.9
 (Enter /share/apps/gaussian/g09/l601.exe)
 Copying SCF densities to generalized density rwf, IOpCl= 0 IROHF=0.

 **********************************************************************

            Population analysis using the SCF density.

 **********************************************************************

 Alpha  occ. eigenvalues --  -14.64092 -14.63621 -10.49423 -10.43698 -10.43571
 Alpha  occ. eigenvalues --  -10.43296 -10.43047 -10.40603 -10.36671  -1.25220
 Alpha  occ. eigenvalues --   -1.13644  -0.99354  -0.96664  -0.90696  -0.89006
 Alpha  occ. eigenvalues --   -0.83046  -0.80589  -0.75246  -0.71208  -0.67842
 Alpha  occ. eigenvalues --   -0.65662  -0.63589  -0.63135  -0.61048  -0.60605
 Alpha  occ. eigenvalues --   -0.59549  -0.58775  -0.57615  -0.57036  -0.55173
 Alpha  occ. eigenvalues --   -0.53150  -0.51237  -0.47380  -0.42316
 Alpha virt. eigenvalues --   -0.17381  -0.14070  -0.12977  -0.10613  -0.10488
 Alpha virt. eigenvalues --   -0.09631  -0.08594  -0.08061  -0.07574  -0.07312
 Alpha virt. eigenvalues --   -0.07031  -0.06181  -0.05554  -0.05039  -0.04593
 Alpha virt. eigenvalues --   -0.04280  -0.04085  -0.03208  -0.02801  -0.02490
 Alpha virt. eigenvalues --   -0.02299  -0.01899  -0.01607  -0.01179  -0.00700
 Alpha virt. eigenvalues --   -0.00444  -0.00287  -0.00213   0.00495   0.00631
 Alpha virt. eigenvalues --    0.00822   0.00965   0.01443   0.01587   0.01864
 Alpha virt. eigenvalues --    0.02165   0.02323   0.02946   0.03262   0.03489
 Alpha virt. eigenvalues --    0.03761   0.04443   0.04936   0.05158   0.05777
 Alpha virt. eigenvalues --    0.06182   0.06353   0.06957   0.07218   0.07761
 Alpha virt. eigenvalues --    0.08386   0.08734   0.08898   0.09285   0.09525
 Alpha virt. eigenvalues --    0.10055   0.10366   0.10885   0.11429   0.12091
 Alpha virt. eigenvalues --    0.12316   0.12664   0.12736   0.13532   0.14010
 Alpha virt. eigenvalues --    0.14480   0.14690   0.14730   0.15461   0.15989
 Alpha virt. eigenvalues --    0.16784   0.17038   0.17259   0.17679   0.18488
 Alpha virt. eigenvalues --    0.18589   0.19099   0.19643   0.19849   0.19994
 Alpha virt. eigenvalues --    0.20305   0.20847   0.21687   0.21802   0.22033
 Alpha virt. eigenvalues --    0.22326   0.22694   0.23097   0.23383   0.23660
 Alpha virt. eigenvalues --    0.23878   0.24472   0.25020   0.25333   0.25840
 Alpha virt. eigenvalues --    0.26180   0.26647   0.26908   0.26999   0.27392
 Alpha virt. eigenvalues --    0.28246   0.28955   0.29224   0.29355   0.29701
 Alpha virt. eigenvalues --    0.30071   0.30290   0.30759   0.30931   0.31340
 Alpha virt. eigenvalues --    0.31670   0.32418   0.32849   0.33068   0.33460
 Alpha virt. eigenvalues --    0.33937   0.34435   0.34675   0.35412   0.35782
 Alpha virt. eigenvalues --    0.36241   0.37038   0.37266   0.37482   0.37933
 Alpha virt. eigenvalues --    0.38770   0.39485   0.40057   0.40861   0.41154
 Alpha virt. eigenvalues --    0.41366   0.41705   0.42301   0.42867   0.43234
 Alpha virt. eigenvalues --    0.43529   0.44360   0.45041   0.45811   0.46151
 Alpha virt. eigenvalues --    0.47172   0.47335   0.47397   0.48341   0.48928
 Alpha virt. eigenvalues --    0.50153   0.50669   0.50968   0.51862   0.52311
 Alpha virt. eigenvalues --    0.52828   0.53966   0.54746   0.55320   0.55539
 Alpha virt. eigenvalues --    0.55943   0.56266   0.57002   0.57255   0.57735
 Alpha virt. eigenvalues --    0.58306   0.58557   0.59125   0.60092   0.60383
 Alpha virt. eigenvalues --    0.60981   0.61067   0.61475   0.62686   0.62717
 Alpha virt. eigenvalues --    0.63463   0.64199   0.64572   0.64844   0.65391
 Alpha virt. eigenvalues --    0.65658   0.66363   0.66715   0.66925   0.67403
 Alpha virt. eigenvalues --    0.67764   0.68111   0.69119   0.69292   0.70156
 Alpha virt. eigenvalues --    0.70905   0.71264   0.72095   0.72300   0.72767
 Alpha virt. eigenvalues --    0.73405   0.74351   0.74448   0.75394   0.75905
 Alpha virt. eigenvalues --    0.76059   0.76330   0.76800   0.77245   0.77961
 Alpha virt. eigenvalues --    0.79256   0.80099   0.80416   0.80553   0.81322
 Alpha virt. eigenvalues --    0.82026   0.82157   0.83465   0.83712   0.84063
 Alpha virt. eigenvalues --    0.84768   0.85354   0.85682   0.86576   0.86844
 Alpha virt. eigenvalues --    0.87470   0.88013   0.88884   0.89399   0.89800
 Alpha virt. eigenvalues --    0.90266   0.91048   0.91343   0.91784   0.92598
 Alpha virt. eigenvalues --    0.93149   0.94140   0.95080   0.95223   0.96027
 Alpha virt. eigenvalues --    0.96154   0.96338   0.97438   0.98056   0.98485
 Alpha virt. eigenvalues --    0.98971   1.00036   1.01432   1.02264   1.02753
 Alpha virt. eigenvalues --    1.03103   1.04184   1.04383   1.04611   1.05066
 Alpha virt. eigenvalues --    1.05670   1.06273   1.06905   1.08117   1.09645
 Alpha virt. eigenvalues --    1.09920   1.10601   1.10980   1.11654   1.12046
 Alpha virt. eigenvalues --    1.12603   1.13466   1.13594   1.13989   1.14896
 Alpha virt. eigenvalues --    1.15560   1.16654   1.16763   1.17891   1.18303
 Alpha virt. eigenvalues --    1.18751   1.19103   1.20764   1.20917   1.21376
 Alpha virt. eigenvalues --    1.22687   1.23111   1.23762   1.24331   1.24734
 Alpha virt. eigenvalues --    1.25621   1.26692   1.26833   1.27461   1.28215
 Alpha virt. eigenvalues --    1.28933   1.29212   1.30087   1.30339   1.31810
 Alpha virt. eigenvalues --    1.32175   1.33100   1.33644   1.34615   1.35063
 Alpha virt. eigenvalues --    1.35489   1.35936   1.36776   1.37018   1.37401
 Alpha virt. eigenvalues --    1.38340   1.38805   1.39769   1.40135   1.40696
 Alpha virt. eigenvalues --    1.41705   1.42509   1.42564   1.43367   1.43809
 Alpha virt. eigenvalues --    1.44714   1.45518   1.46005   1.46213   1.47139
 Alpha virt. eigenvalues --    1.48307   1.48823   1.49883   1.50334   1.51092
 Alpha virt. eigenvalues --    1.52023   1.52201   1.53922   1.54052   1.54807
 Alpha virt. eigenvalues --    1.55565   1.56340   1.56906   1.58076   1.58442
 Alpha virt. eigenvalues --    1.58949   1.59257   1.59940   1.61024   1.61573
 Alpha virt. eigenvalues --    1.62486   1.63300   1.63773   1.65518   1.66429
 Alpha virt. eigenvalues --    1.67327   1.68141   1.68449   1.68979   1.69963
 Alpha virt. eigenvalues --    1.70890   1.72192   1.72834   1.74362   1.75466
 Alpha virt. eigenvalues --    1.76151   1.77227   1.77951   1.78121   1.79527
 Alpha virt. eigenvalues --    1.81985   1.82583   1.83543   1.84573   1.85564
 Alpha virt. eigenvalues --    1.86620   1.87252   1.88053   1.88805   1.89821
 Alpha virt. eigenvalues --    1.90592   1.91197   1.91828   1.92427   1.93292
 Alpha virt. eigenvalues --    1.93894   1.94366   1.95476   1.96700   1.97173
 Alpha virt. eigenvalues --    1.98358   1.98712   2.00073   2.00473   2.03382
 Alpha virt. eigenvalues --    2.03796   2.04656   2.05480   2.06095   2.08105
 Alpha virt. eigenvalues --    2.09164   2.09663   2.12923   2.14619   2.15639
 Alpha virt. eigenvalues --    2.17011   2.17914   2.18416   2.20416   2.21721
 Alpha virt. eigenvalues --    2.23825   2.24767   2.26766   2.28712   2.30174
 Alpha virt. eigenvalues --    2.30915   2.33511   2.35705   2.37136   2.38554
 Alpha virt. eigenvalues --    2.39529   2.43567   2.44334   2.45100   2.48582
 Alpha virt. eigenvalues --    2.51771   2.54911   2.57249   2.58326   2.60967
 Alpha virt. eigenvalues --    2.64736   2.67733   2.69022   2.76650   2.78619
 Alpha virt. eigenvalues --    2.80398   2.82988   2.84151   2.87298   2.88698
 Alpha virt. eigenvalues --    2.90142   2.92884   2.94398   2.95138   2.96175
 Alpha virt. eigenvalues --    2.98982   2.99591   2.99994   3.01980   3.03072
 Alpha virt. eigenvalues --    3.04407   3.06759   3.08111   3.09661   3.11058
 Alpha virt. eigenvalues --    3.12025   3.12516   3.13797   3.14459   3.15497
 Alpha virt. eigenvalues --    3.16751   3.17063   3.18475   3.18790   3.19789
 Alpha virt. eigenvalues --    3.21488   3.22134   3.23234   3.25198   3.25316
 Alpha virt. eigenvalues --    3.27026   3.28203   3.28441   3.29146   3.30604
 Alpha virt. eigenvalues --    3.31342   3.32161   3.32747   3.33514   3.34330
 Alpha virt. eigenvalues --    3.36087   3.36379   3.37340   3.38852   3.39581
 Alpha virt. eigenvalues --    3.41073   3.41577   3.42178   3.42473   3.43096
 Alpha virt. eigenvalues --    3.44130   3.44800   3.45712   3.45964   3.47022
 Alpha virt. eigenvalues --    3.48595   3.49499   3.49907   3.50190   3.51280
 Alpha virt. eigenvalues --    3.53322   3.54049   3.55093   3.55520   3.56087
 Alpha virt. eigenvalues --    3.58479   3.59185   3.60077   3.62237   3.62478
 Alpha virt. eigenvalues --    3.63711   3.64337   3.64891   3.66538   3.67246
 Alpha virt. eigenvalues --    3.68479   3.69044   3.69355   3.71384   3.73209
 Alpha virt. eigenvalues --    3.73369   3.74134   3.75027   3.75825   3.77043
 Alpha virt. eigenvalues --    3.77382   3.78529   3.79214   3.79992   3.80803
 Alpha virt. eigenvalues --    3.81267   3.82134   3.84270   3.85257   3.86142
 Alpha virt. eigenvalues --    3.87382   3.88159   3.89479   3.90329   3.91289
 Alpha virt. eigenvalues --    3.93824   3.95021   3.97720   3.97837   4.00494
 Alpha virt. eigenvalues --    4.02077   4.02665   4.02826   4.04381   4.06046
 Alpha virt. eigenvalues --    4.07639   4.08081   4.10577   4.10667   4.11536
 Alpha virt. eigenvalues --    4.12258   4.14378   4.16400   4.17915   4.18605
 Alpha virt. eigenvalues --    4.20567   4.21482   4.23374   4.26493   4.27909
 Alpha virt. eigenvalues --    4.28804   4.29505   4.29713   4.31104   4.32193
 Alpha virt. eigenvalues --    4.35320   4.35609   4.37053   4.37560   4.38234
 Alpha virt. eigenvalues --    4.39595   4.40452   4.41694   4.42140   4.43876
 Alpha virt. eigenvalues --    4.45710   4.46521   4.48086   4.49141   4.51722
 Alpha virt. eigenvalues --    4.53371   4.55236   4.56694   4.58600   4.59129
 Alpha virt. eigenvalues --    4.60373   4.63412   4.64514   4.64921   4.66321
 Alpha virt. eigenvalues --    4.67398   4.68271   4.69444   4.71269   4.73207
 Alpha virt. eigenvalues --    4.74520   4.75758   4.76693   4.78035   4.78707
 Alpha virt. eigenvalues --    4.80667   4.82506   4.83699   4.85217   4.87035
 Alpha virt. eigenvalues --    4.88982   4.91369   4.91668   4.92908   4.95148
 Alpha virt. eigenvalues --    4.96573   4.97815   4.99500   5.01765   5.01879
 Alpha virt. eigenvalues --    5.02963   5.04499   5.06229   5.07520   5.08646
 Alpha virt. eigenvalues --    5.09629   5.10157   5.12428   5.13146   5.14953
 Alpha virt. eigenvalues --    5.17638   5.19292   5.20548   5.21856   5.23891
 Alpha virt. eigenvalues --    5.25586   5.25790   5.27486   5.30092   5.32254
 Alpha virt. eigenvalues --    5.34081   5.36090   5.36579   5.39387   5.40863
 Alpha virt. eigenvalues --    5.43693   5.45382   5.47872   5.48757   5.51742
 Alpha virt. eigenvalues --    5.53735   5.55828   5.56392   5.58406   5.60616
 Alpha virt. eigenvalues --    5.61970   5.64262   5.66160   5.68295   5.68619
 Alpha virt. eigenvalues --    5.69958   5.71396   5.74313   5.76588   5.79767
 Alpha virt. eigenvalues --    5.81702   5.83812   5.87972   5.96599   6.01448
 Alpha virt. eigenvalues --    6.05355   6.10244   6.12674   6.20607   6.26020
 Alpha virt. eigenvalues --    6.27359   6.28987   6.32216   6.32809   6.35750
 Alpha virt. eigenvalues --    6.38580   6.39969   6.44829   6.48331   6.51141
 Alpha virt. eigenvalues --    6.56142   6.57424   6.63642   6.66109   6.76121
 Alpha virt. eigenvalues --   15.18977  16.01786  16.34460  17.02296  18.08877
 Alpha virt. eigenvalues --   18.18986  18.66552  18.97539  20.39173
          Condensed to atoms (all electrons):
               1          2          3          4          5          6
     1  C    6.761022   0.230751  -0.283025  -0.313349   0.236355  -0.196023
     2  N    0.230751   7.132382   0.446223  -0.269674  -0.802366  -0.063582
     3  C   -0.283025   0.446223   7.217651  -0.724555  -0.273479  -0.055411
     4  C   -0.313349  -0.269674  -0.724555   7.486683   0.339959  -0.099750
     5  N    0.236355  -0.802366  -0.273479   0.339959   7.200450   0.398763
     6  C   -0.196023  -0.063582  -0.055411  -0.099750   0.398763   5.476637
     7  C   -0.027929   0.003038  -0.003155  -0.006017   0.009230   0.156881
     8  H    0.005629   0.002288  -0.002997   0.004133  -0.011450  -0.002358
     9  H    0.000826  -0.001294  -0.001749   0.006845  -0.009580   0.006282
    10  H    0.057121   0.008694   0.000018  -0.015553  -0.022244   0.372995
    11  H    0.001954  -0.002667  -0.011242   0.059022  -0.051342   0.401482
    12  H    0.003537   0.065128  -0.166650   0.392438  -0.142084  -0.010459
    13  H    0.014582  -0.138881   0.303484  -0.211999   0.085018   0.007481
    14  C   -0.173813   0.483487  -0.103772  -0.036309  -0.071121  -0.006795
    15  H    0.006094   0.032630  -0.026806   0.004377   0.004850   0.001397
    16  H   -0.012604  -0.045212   0.074577  -0.010772  -0.017541  -0.000220
    17  H    0.006686   0.031377  -0.022945   0.003130  -0.002534   0.000451
    18  C   -0.230201  -0.148145  -0.010662  -0.009739  -0.091193   0.027750
    19  H   -0.002477   0.003896   0.001524  -0.007738  -0.028200  -0.000620
    20  H    0.001894   0.010979   0.002611  -0.005209  -0.054253  -0.013108
    21  H   -0.068507  -0.062349  -0.004489   0.007488   0.027746   0.011267
    22  H   -0.006426  -0.000793   0.000919  -0.003421   0.010806  -0.030582
               7          8          9         10         11         12
     1  C   -0.027929   0.005629   0.000826   0.057121   0.001954   0.003537
     2  N    0.003038   0.002288  -0.001294   0.008694  -0.002667   0.065128
     3  C   -0.003155  -0.002997  -0.001749   0.000018  -0.011242  -0.166650
     4  C   -0.006017   0.004133   0.006845  -0.015553   0.059022   0.392438
     5  N    0.009230  -0.011450  -0.009580  -0.022244  -0.051342  -0.142084
     6  C    0.156881  -0.002358   0.006282   0.372995   0.401482  -0.010459
     7  C    5.386496   0.416268   0.384826  -0.011498  -0.032558  -0.000416
     8  H    0.416268   0.377227  -0.003370   0.005731  -0.010131   0.000560
     9  H    0.384826  -0.003370   0.368375  -0.009044   0.007076  -0.000227
    10  H   -0.011498   0.005731  -0.009044   0.465121  -0.058417   0.003538
    11  H   -0.032558  -0.010131   0.007076  -0.058417   0.538429  -0.011886
    12  H   -0.000416   0.000560  -0.000227   0.003538  -0.011886   0.428818
    13  H   -0.000859  -0.000010  -0.000110  -0.000213   0.000128  -0.041780
    14  C   -0.001462   0.000041   0.000044   0.002160   0.001142   0.005149
    15  H   -0.000271   0.000018   0.000017   0.000319   0.000060  -0.000100
    16  H    0.000229   0.000006  -0.000037  -0.000069   0.000109   0.000212
    17  H   -0.000184  -0.000046   0.000032   0.000136   0.000133   0.000143
    18  C   -0.004553  -0.002560   0.001918  -0.010102   0.001349   0.005909
    19  H    0.000537   0.000148   0.000219  -0.000189  -0.000628   0.000132
    20  H   -0.001109  -0.000379   0.003501   0.002599   0.000866   0.001192
    21  H   -0.000845  -0.000246  -0.000011   0.000015   0.000603  -0.000416
    22  H    0.412464  -0.004364  -0.008410  -0.004220  -0.002814  -0.000409
              13         14         15         16         17         18
     1  C    0.014582  -0.173813   0.006094  -0.012604   0.006686  -0.230201
     2  N   -0.138881   0.483487   0.032630  -0.045212   0.031377  -0.148145
     3  C    0.303484  -0.103772  -0.026806   0.074577  -0.022945  -0.010662
     4  C   -0.211999  -0.036309   0.004377  -0.010772   0.003130  -0.009739
     5  N    0.085018  -0.071121   0.004850  -0.017541  -0.002534  -0.091193
     6  C    0.007481  -0.006795   0.001397  -0.000220   0.000451   0.027750
     7  C   -0.000859  -0.001462  -0.000271   0.000229  -0.000184  -0.004553
     8  H   -0.000010   0.000041   0.000018   0.000006  -0.000046  -0.002560
     9  H   -0.000110   0.000044   0.000017  -0.000037   0.000032   0.001918
    10  H   -0.000213   0.002160   0.000319  -0.000069   0.000136  -0.010102
    11  H    0.000128   0.001142   0.000060   0.000109   0.000133   0.001349
    12  H   -0.041780   0.005149  -0.000100   0.000212   0.000143   0.005909
    13  H    0.390275  -0.033609  -0.000957  -0.004837  -0.001352   0.006770
    14  C   -0.033609   5.690185   0.344197   0.383582   0.356927  -0.023241
    15  H   -0.000957   0.344197   0.328660  -0.019621   0.006826  -0.008938
    16  H   -0.004837   0.383582  -0.019621   0.426699  -0.015843   0.006544
    17  H   -0.001352   0.356927   0.006826  -0.015843   0.323266  -0.007381
    18  C    0.006770  -0.023241  -0.008938   0.006544  -0.007381   5.638611
    19  H   -0.000113   0.004446  -0.001171   0.001077  -0.001392   0.382106
    20  H   -0.000307   0.006833  -0.002807   0.001316  -0.000660   0.370347
    21  H    0.001428  -0.011073   0.005286   0.001400   0.001994   0.467614
    22  H    0.000035  -0.000152  -0.000033   0.000018  -0.000002   0.002515
              19         20         21         22
     1  C   -0.002477   0.001894  -0.068507  -0.006426
     2  N    0.003896   0.010979  -0.062349  -0.000793
     3  C    0.001524   0.002611  -0.004489   0.000919
     4  C   -0.007738  -0.005209   0.007488  -0.003421
     5  N   -0.028200  -0.054253   0.027746   0.010806
     6  C   -0.000620  -0.013108   0.011267  -0.030582
     7  C    0.000537  -0.001109  -0.000845   0.412464
     8  H    0.000148  -0.000379  -0.000246  -0.004364
     9  H    0.000219   0.003501  -0.000011  -0.008410
    10  H   -0.000189   0.002599   0.000015  -0.004220
    11  H   -0.000628   0.000866   0.000603  -0.002814
    12  H    0.000132   0.001192  -0.000416  -0.000409
    13  H   -0.000113  -0.000307   0.001428   0.000035
    14  C    0.004446   0.006833  -0.011073  -0.000152
    15  H   -0.001171  -0.002807   0.005286  -0.000033
    16  H    0.001077   0.001316   0.001400   0.000018
    17  H   -0.001392  -0.000660   0.001994  -0.000002
    18  C    0.382106   0.370347   0.467614   0.002515
    19  H    0.368366   0.024356  -0.032606  -0.000051
    20  H    0.024356   0.400742  -0.054324  -0.000300
    21  H   -0.032606  -0.054324   0.532157   0.000196
    22  H   -0.000051  -0.000300   0.000196   0.387133
 Mulliken charges:
               1
     1  C   -0.012098
     2  N    0.084091
     3  C   -0.356069
     4  C   -0.589993
     5  N    0.264210
     6  C   -0.382480
     7  C   -0.679114
     8  H    0.225860
     9  H    0.253872
    10  H    0.213102
    11  H    0.169330
    12  H    0.467671
    13  H    0.625825
    14  C   -0.816849
    15  H    0.325971
    16  H    0.230986
    17  H    0.321240
    18  C   -0.364717
    19  H    0.288378
    20  H    0.305221
    21  H    0.177672
    22  H    0.247891
 Sum of Mulliken charges =   1.00000
 Mulliken charges with hydrogens summed into heavy atoms:
               1
     1  C   -0.012098
     2  N    0.084091
     3  C    0.269756
     4  C   -0.122321
     5  N    0.264210
     6  C   -0.000048
     7  C    0.048508
    14  C    0.061349
    18  C    0.406554
 Electronic spatial extent (au):  <R**2>=           1492.5997
 Charge=              1.0000 electrons
 Dipole moment (field-independent basis, Debye):
    X=              5.3939    Y=              0.3074    Z=             -0.2927  Tot=              5.4105
 Quadrupole moment (field-independent basis, Debye-Ang):
   XX=            -23.0766   YY=            -39.2121   ZZ=            -52.6464
   XY=              2.5106   XZ=              2.9905   YZ=              0.8297
 Traceless Quadrupole moment (field-independent basis, Debye-Ang):
   XX=             15.2351   YY=             -0.9004   ZZ=            -14.3347
   XY=              2.5106   XZ=              2.9905   YZ=              0.8297
 Octapole moment (field-independent basis, Debye-Ang**2):
  XXX=            -54.1519  YYY=              7.3630  ZZZ=              3.2499  XYY=            -29.0818
  XXY=              4.9936  XXZ=             11.8339  XZZ=            -49.0617  YZZ=              8.5687
  YYZ=             -1.5457  XYZ=             -0.0206
 Hexadecapole moment (field-independent basis, Debye-Ang**3):
 XXXX=           -934.3956 YYYY=           -422.7414 ZZZZ=           -133.4045 XXXY=            -33.0154
 XXXZ=             28.3134 YYYX=            -45.8776 YYYZ=             -3.7641 ZZZX=             -6.9764
 ZZZY=             -8.8883 XXYY=           -249.9561 XXZZ=           -238.6875 YYZZ=           -100.7489
 XXYZ=             -2.8231 YYXZ=             -0.2896 ZZXY=             -3.6639
 N-N= 4.694079412546D+02 E-N=-1.815850989951D+03  KE= 3.806105916039D+02
 No NMR shielding tensors so no spin-rotation constants.
 Leave Link  601 at Sun Nov 10 00:04:55 2019, MaxMem=   134217728 cpu:         5.3
 (Enter /share/apps/gaussian/g09/l9999.exe)
 1\1\GINC-COMPUTE-2-35\SP\RPBE1PBE\Aug-CC-pVTZ\C7H13N2\HTJUNG\10-Nov-20
 19\0\\#P pbe1pbe/aug-cc-pvtz symmetry=none\\Ionization potential\\1,1\
 C,0,1.1530248131,0.5292964636,-0.1255735835\N,0,2.376676595,-0.0151845
 146,0.1024828973\C,0,2.2873282689,-1.3947170763,0.004785758\C,0,0.9812
 655091,-1.6944652812,-0.2901312982\N,0,0.2965557987,-0.4939541388,-0.3
 716744915\C,0,-1.1526697918,-0.3678346578,-0.6257207132\C,0,-1.9939740
 835,-0.5024992919,0.640679118\H,0,-1.8431336795,-1.4864252158,1.126821
 7682\H,0,-1.7619542808,0.2908590507,1.3788608715\H,0,-1.31779759,0.606
 8430479,-1.1242282662\H,0,-1.4106971547,-1.150298101,-1.3662535997\H,0
 ,0.4900241452,-2.6590043546,-0.4524028998\H,0,3.1550079017,-2.04621853
 16,0.1479953053\C,0,3.6052636907,0.7286499899,0.3910784787\H,0,3.48734
 027,1.3310507799,1.3120092193\H,0,4.4241598395,0.0048906237,0.54579232
 99\H,0,3.8693108074,1.3883827714,-0.4573479317\C,0,0.8165845854,1.9769
 865266,-0.1355902365\H,0,0.5952590126,2.3307509808,-1.1650415439\H,0,-
 0.0714804436,2.1885267239,0.4922513497\H,0,1.6557229323,2.5809535735,0
 .2526028632\H,0,-3.0661190727,-0.4165203607,0.3771456081\\Version=EM64
 L-G09RevD.01\HF=-383.5414253\RMSD=4.813e-09\Dipole=0.4487681,0.2564467
 ,-0.0697096\Quadrupole=11.3269503,-0.669442,-10.6575083,1.8665806,2.22
 33334,0.6168912\PG=Unknown\\@


 I WANT TO KNOW HOW GOD CREATED THE WORLD.  I AM NOT INTERESTED IN
 THIS OR THAT PHENOMENON, IN THE SPECTRUM OF THIS OR THAT ELEMENT.
 I WANT TO KNOW HIS THOUGHTS, THE REST ARE DETAILS.
     -- ALBERT EINSTEIN
 Job cpu time:       0 days  4 hours  5 minutes 34.8 seconds.
 File lengths (MBytes):  RWF=    263 Int=      0 D2E=      0 Chk=     19 Scr=      1
 Normal termination of Gaussian 09 at Sun Nov 10 00:04:56 2019.
 Initial command:
 /share/apps/gaussian/g09/l1.exe "/scratch/2863144.phoenix.chem.wisc.edu/Gau-22864.inp" -scrdir="/scratch/2863144.phoenix.chem.wisc.edu/"
 Entering Link 1 = /share/apps/gaussian/g09/l1.exe PID=     23234.
  
 Copyright (c) 1988,1990,1992,1993,1995,1998,2003,2009,2013,
            Gaussian, Inc.  All Rights Reserved.
  
 This is part of the Gaussian(R) 09 program.  It is based on
 the Gaussian(R) 03 system (copyright 2003, Gaussian, Inc.),
 the Gaussian(R) 98 system (copyright 1998, Gaussian, Inc.),
 the Gaussian(R) 94 system (copyright 1995, Gaussian, Inc.),
 the Gaussian 92(TM) system (copyright 1992, Gaussian, Inc.),
 the Gaussian 90(TM) system (copyright 1990, Gaussian, Inc.),
 the Gaussian 88(TM) system (copyright 1988, Gaussian, Inc.),
 the Gaussian 86(TM) system (copyright 1986, Carnegie Mellon
 University), and the Gaussian 82(TM) system (copyright 1983,
 Carnegie Mellon University). Gaussian is a federally registered
 trademark of Gaussian, Inc.
  
 This software contains proprietary and confidential information,
 including trade secrets, belonging to Gaussian, Inc.
  
 This software is provided under written license and may be
 used, copied, transmitted, or stored only in accord with that
 written license.
  
 The following legend is applicable only to US Government
 contracts under FAR:
  
                    RESTRICTED RIGHTS LEGEND
  
 Use, reproduction and disclosure by the US Government is
 subject to restrictions as set forth in subparagraphs (a)
 and (c) of the Commercial Computer Software - Restricted
 Rights clause in FAR 52.227-19.
  
 Gaussian, Inc.
 340 Quinnipiac St., Bldg. 40, Wallingford CT 06492
  
  
 ---------------------------------------------------------------
 Warning -- This program may not be used in any manner that
 competes with the business of Gaussian, Inc. or will provide
 assistance to any competitor of Gaussian, Inc.  The licensee
 of this program is prohibited from giving any competitor of
 Gaussian, Inc. access to this program.  By using this program,
 the user acknowledges that Gaussian, Inc. is engaged in the
 business of creating and licensing software in the field of
 computational chemistry and represents and warrants to the
 licensee that it is not a competitor of Gaussian, Inc. and that
 it will not use this program in any manner prohibited above.
 ---------------------------------------------------------------
  

 Cite this work as:
 Gaussian 09, Revision D.01,
 M. J. Frisch, G. W. Trucks, H. B. Schlegel, G. E. Scuseria, 
 M. A. Robb, J. R. Cheeseman, G. Scalmani, V. Barone, B. Mennucci, 
 G. A. Petersson, H. Nakatsuji, M. Caricato, X. Li, H. P. Hratchian, 
 A. F. Izmaylov, J. Bloino, G. Zheng, J. L. Sonnenberg, M. Hada, 
 M. Ehara, K. Toyota, R. Fukuda, J. Hasegawa, M. Ishida, T. Nakajima, 
 Y. Honda, O. Kitao, H. Nakai, T. Vreven, J. A. Montgomery, Jr., 
 J. E. Peralta, F. Ogliaro, M. Bearpark, J. J. Heyd, E. Brothers, 
 K. N. Kudin, V. N. Staroverov, T. Keith, R. Kobayashi, J. Normand, 
 K. Raghavachari, A. Rendell, J. C. Burant, S. S. Iyengar, J. Tomasi, 
 M. Cossi, N. Rega, J. M. Millam, M. Klene, J. E. Knox, J. B. Cross, 
 V. Bakken, C. Adamo, J. Jaramillo, R. Gomperts, R. E. Stratmann, 
 O. Yazyev, A. J. Austin, R. Cammi, C. Pomelli, J. W. Ochterski, 
 R. L. Martin, K. Morokuma, V. G. Zakrzewski, G. A. Voth, 
 P. Salvador, J. J. Dannenberg, S. Dapprich, A. D. Daniels, 
 O. Farkas, J. B. Foresman, J. V. Ortiz, J. Cioslowski, 
 and D. J. Fox, Gaussian, Inc., Wallingford CT, 2013.
 
 ******************************************
 Gaussian 09:  EM64L-G09RevD.01 24-Apr-2013
                10-Nov-2019 
 ******************************************
 %nproc=8
 Will use up to    8 processors via shared memory.
 %chk=emmim.chk
 %mem=1GB
 ------------------------------------------------
 #P upbe1pbe/aug-cc-pvtz symmetry=none guess=read
 ------------------------------------------------
 1/38=1/1;
 2/12=2,15=3,17=6,18=5,40=1/2;
 3/5=16,6=1,7=10,11=2,16=1,25=1,30=1,74=-13,116=2/1,2,3;
 4/5=1/1;
 5/5=2,38=6/2;
 6/7=2,8=2,9=2,10=2,28=1/1;
 99/5=1,9=1/99;
 Leave Link    1 at Sun Nov 10 00:04:56 2019, MaxMem=   134217728 cpu:         0.3
 (Enter /share/apps/gaussian/g09/l101.exe)
 --------------------
 Ionization potential
 --------------------
 Symbolic Z-matrix:
 Charge =  2 Multiplicity = 2
 C                     1.15302   0.5293   -0.12557 
 N                     2.37668  -0.01518   0.10248 
 C                     2.28733  -1.39472   0.00479 
 C                     0.98127  -1.69447  -0.29013 
 N                     0.29656  -0.49395  -0.37167 
 C                    -1.15267  -0.36783  -0.62572 
 C                    -1.99397  -0.5025    0.64068 
 H                    -1.84313  -1.48643   1.12682 
 H                    -1.76195   0.29086   1.37886 
 H                    -1.3178    0.60684  -1.12423 
 H                    -1.4107   -1.1503   -1.36625 
 H                     0.49002  -2.659    -0.4524 
 H                     3.15501  -2.04622   0.148 
 C                     3.60526   0.72865   0.39108 
 H                     3.48734   1.33105   1.31201 
 H                     4.42416   0.00489   0.54579 
 H                     3.86931   1.38838  -0.45735 
 C                     0.81658   1.97699  -0.13559 
 H                     0.59526   2.33075  -1.16504 
 H                    -0.07148   2.18853   0.49225 
 H                     1.65572   2.58095   0.2526 
 H                    -3.06612  -0.41652   0.37715 
 
 NAtoms=     22 NQM=       22 NQMF=       0 NMMI=      0 NMMIF=      0
                NMic=       0 NMicF=      0.
                    Isotopes and Nuclear Properties:
 (Nuclear quadrupole moments (NQMom) in fm**2, nuclear magnetic moments (NMagM)
  in nuclear magnetons)

  Atom         1           2           3           4           5           6           7           8           9          10
 IAtWgt=          12          14          12          12          14          12          12           1           1           1
 AtmWgt=  12.0000000  14.0030740  12.0000000  12.0000000  14.0030740  12.0000000  12.0000000   1.0078250   1.0078250   1.0078250
 NucSpn=           0           2           0           0           2           0           0           1           1           1
 AtZEff=   0.0000000   0.0000000   0.0000000   0.0000000   0.0000000   0.0000000   0.0000000   0.0000000   0.0000000   0.0000000
 NQMom=    0.0000000   2.0440000   0.0000000   0.0000000   2.0440000   0.0000000   0.0000000   0.0000000   0.0000000   0.0000000
 NMagM=    0.0000000   0.4037610   0.0000000   0.0000000   0.4037610   0.0000000   0.0000000   2.7928460   2.7928460   2.7928460
 AtZNuc=   6.0000000   7.0000000   6.0000000   6.0000000   7.0000000   6.0000000   6.0000000   1.0000000   1.0000000   1.0000000

  Atom        11          12          13          14          15          16          17          18          19          20
 IAtWgt=           1           1           1          12           1           1           1          12           1           1
 AtmWgt=   1.0078250   1.0078250   1.0078250  12.0000000   1.0078250   1.0078250   1.0078250  12.0000000   1.0078250   1.0078250
 NucSpn=           1           1           1           0           1           1           1           0           1           1
 AtZEff=   0.0000000   0.0000000   0.0000000   0.0000000   0.0000000   0.0000000   0.0000000   0.0000000   0.0000000   0.0000000
 NQMom=    0.0000000   0.0000000   0.0000000   0.0000000   0.0000000   0.0000000   0.0000000   0.0000000   0.0000000   0.0000000
 NMagM=    2.7928460   2.7928460   2.7928460   0.0000000   2.7928460   2.7928460   2.7928460   0.0000000   2.7928460   2.7928460
 AtZNuc=   1.0000000   1.0000000   1.0000000   6.0000000   1.0000000   1.0000000   1.0000000   6.0000000   1.0000000   1.0000000

  Atom        21          22
 IAtWgt=           1           1
 AtmWgt=   1.0078250   1.0078250
 NucSpn=           1           1
 AtZEff=   0.0000000   0.0000000
 NQMom=    0.0000000   0.0000000
 NMagM=    2.7928460   2.7928460
 AtZNuc=   1.0000000   1.0000000
 Leave Link  101 at Sun Nov 10 00:04:56 2019, MaxMem=   134217728 cpu:         0.6
 (Enter /share/apps/gaussian/g09/l202.exe)
                          Input orientation:                          
 ---------------------------------------------------------------------
 Center     Atomic      Atomic             Coordinates (Angstroms)
 Number     Number       Type             X           Y           Z
 ---------------------------------------------------------------------
      1          6           0        1.153025    0.529296   -0.125574
      2          7           0        2.376677   -0.015185    0.102483
      3          6           0        2.287328   -1.394717    0.004786
      4          6           0        0.981266   -1.694465   -0.290131
      5          7           0        0.296556   -0.493954   -0.371674
      6          6           0       -1.152670   -0.367835   -0.625721
      7          6           0       -1.993974   -0.502499    0.640679
      8          1           0       -1.843134   -1.486425    1.126822
      9          1           0       -1.761954    0.290859    1.378861
     10          1           0       -1.317798    0.606843   -1.124228
     11          1           0       -1.410697   -1.150298   -1.366254
     12          1           0        0.490024   -2.659004   -0.452403
     13          1           0        3.155008   -2.046219    0.147995
     14          6           0        3.605264    0.728650    0.391078
     15          1           0        3.487340    1.331051    1.312009
     16          1           0        4.424160    0.004891    0.545792
     17          1           0        3.869311    1.388383   -0.457348
     18          6           0        0.816585    1.976987   -0.135590
     19          1           0        0.595259    2.330751   -1.165042
     20          1           0       -0.071480    2.188527    0.492251
     21          1           0        1.655723    2.580954    0.252603
     22          1           0       -3.066119   -0.416520    0.377146
 ---------------------------------------------------------------------
                    Distance matrix (angstroms):
                    1          2          3          4          5
     1  C    0.000000
     2  N    1.358600   0.000000
     3  C    2.237290   1.385871   0.000000
     4  C    2.236447   2.218401   1.372088   0.000000
     5  N    1.356889   2.186538   2.217267   1.384451   0.000000
     6  C    2.524127   3.620902   3.644943   2.535005   1.476719
     7  C    3.399316   4.430544   4.419272   3.337550   2.504288
     8  H    3.822119   4.584825   4.281132   3.166744   2.794416
     9  H    3.288963   4.341782   4.596296   3.775222   2.813853
    10  H    2.666137   3.942192   4.275260   3.358188   2.093855
    11  H    3.306508   4.217804   3.951567   2.678739   2.081991
    12  H    3.272866   3.295017   2.244492   1.094525   2.175176
    13  H    3.273538   2.175539   1.094455   2.245182   3.293984
    14  C    2.513990   1.464924   2.528807   3.636056   3.608892
    15  H    2.856306   2.123412   3.252487   4.242760   4.043085
    16  H    3.380245   2.095021   2.611061   3.929389   4.257664
    17  H    2.868155   2.123998   3.234483   4.227614   4.039197
    18  C    1.486304   2.541518   3.681192   3.678391   2.536082
    19  H    2.153331   3.206787   4.255668   4.137250   2.949172
    20  H    2.152711   3.316886   4.317550   4.098539   2.842098
    21  H    2.145931   2.698563   4.033150   4.362185   3.419373
    22  H    4.352984   5.464479   5.454807   4.296478   3.445912
                    6          7          8          9         10
     6  C    0.000000
     7  C    1.526334   0.000000
     8  H    2.190751   1.107790   0.000000
     9  H    2.196236   1.108225   1.796901   0.000000
    10  H    1.107147   2.191518   3.118489   2.561753   0.000000
    11  H    1.107798   2.188066   2.552530   3.120251   1.776162
    12  H    2.824525   3.466351   3.051642   4.138433   3.792799
    13  H    4.687398   5.397946   5.123757   5.581530   5.353810
    14  C    4.987393   5.738422   5.927302   5.474888   5.152429
    15  H    5.307608   5.818711   6.032116   5.351781   5.435907
    16  H    5.710726   6.438858   6.468430   6.248503   6.010107
    17  H    5.322869   6.257732   6.588333   6.023900   5.287875
    18  C    3.101028   3.827491   4.545658   3.432994   2.722184
    19  H    3.260136   4.241705   5.076340   4.023562   2.575521
    20  H    2.992293   3.310534   4.128766   2.691639   2.582254
    21  H    4.165798   4.793597   5.435975   4.265385   3.825520
    22  H    2.160879   1.107401   1.789526   1.790158   2.521512
                   11         12         13         14         15
    11  H    0.000000
    12  H    2.593079   0.000000
    13  H    4.892983   2.799665   0.000000
    14  C    5.637244   4.678929   2.821651   0.000000
    15  H    6.109088   5.293165   3.587662   1.106755   0.000000
    16  H    6.247875   4.854910   2.444594   1.103791   1.795389
    17  H    5.928701   5.272660   3.559938   1.106705   1.811025
    18  C    4.031777   4.658264   4.662062   3.100396   3.105755
    19  H    4.022692   5.041487   5.237771   3.748115   3.936917
    20  H    4.049110   4.970535   5.334961   3.957262   3.751329
    21  H    5.093709   5.414152   4.865133   2.692752   2.457523
    22  H    2.513621   4.285212   6.435126   6.768970   6.846591
                   16         17         18         19         20
    16  H    0.000000
    17  H    1.796719   0.000000
    18  C    4.167498   3.125559   0.000000
    19  H    4.795525   3.479699   1.110812   0.000000
    20  H    4.998191   4.131804   1.107968   1.792035   0.000000
    21  H    3.792928   2.612705   1.104366   1.787988   1.787362
    22  H    7.504019   7.214863   4.589898   4.830272   3.970816
                   21         22
    21  H    0.000000
    22  H    5.594296   0.000000
 Symmetry turned off by external request.
 Stoichiometry    C7H13N2
 Rotational constants (GHZ):      2.8748956      1.2435130      0.9487887
 Leave Link  202 at Sun Nov 10 00:04:56 2019, MaxMem=   134217728 cpu:         0.0
 (Enter /share/apps/gaussian/g09/l301.exe)
 Standard basis: Aug-CC-pVTZ (5D, 7F)
 Ernie: Thresh=  0.10000D-02 Tol=  0.10000D-05 Strict=F.
 Ernie:  27 primitive shells out of 413 were deleted.
   713 basis functions,   999 primitive gaussians,   820 cartesian basis functions
    34 alpha electrons       33 beta electrons
       nuclear repulsion energy       469.4079412546 Hartrees.
 IExCor= 1009 DFT=T Ex+Corr=PBE1PBE ExCW=0 ScaHFX=  0.250000
 ScaDFX=  0.750000  0.750000  1.000000  1.000000 ScalE2=  1.000000  1.000000
 IRadAn=      0 IRanWt=     -1 IRanGd=            0 ICorTp=0 IEmpDi=  4
 NAtoms=   22 NActive=   22 NUniq=   22 SFac= 1.00D+00 NAtFMM=   60 NAOKFM=F Big=F
 Integral buffers will be    131072 words long.
 Raffenetti 2 integral format.
 Two-electron integral symmetry is turned off.
 Leave Link  301 at Sun Nov 10 00:04:56 2019, MaxMem=   134217728 cpu:         0.4
 (Enter /share/apps/gaussian/g09/l302.exe)
 NPDir=0 NMtPBC=     1 NCelOv=     1 NCel=       1 NClECP=     1 NCelD=      1
         NCelK=      1 NCelE2=     1 NClLst=     1 CellRange=     0.0.
 One-electron integrals computed using PRISM.
 NBasis=   713 RedAO= T EigKep=  1.14D-06  NBF=   713
 NBsUse=   713 1.00D-06 EigRej= -1.00D+00 NBFU=   713
 Precomputing XC quadrature grid using
 IXCGrd= 4 IRadAn=           0 IRanWt=          -1 IRanGd=           0 AccXCQ= 0.00D+00.
 Generated NRdTot=       0 NPtTot=           0 NUsed=           0 NTot=          32
 NSgBfM=   820   820   820   820   820 MxSgAt=    22 MxSgA2=    22.
 Leave Link  302 at Sun Nov 10 00:04:57 2019, MaxMem=   134217728 cpu:        10.9
 (Enter /share/apps/gaussian/g09/l303.exe)
 DipDrv:  MaxL=1.
 Leave Link  303 at Sun Nov 10 00:04:57 2019, MaxMem=   134217728 cpu:         1.2
 (Enter /share/apps/gaussian/g09/l401.exe)
 Initial guess from the checkpoint file:  "emmim.chk"
 B after Tr=     0.000000    0.000000    0.000000
         Rot=    1.000000    0.000000    0.000000    0.000000 Ang=   0.00 deg.
 Guess basis will be translated and rotated to current coordinates.
 JPrj=2 DoOrth=T DoCkMO=T.
 Initial guess <Sx>= 0.0000 <Sy>= 0.0000 <Sz>= 0.5000 <S**2>= 0.7500 S= 0.5000
 Leave Link  401 at Sun Nov 10 00:05:02 2019, MaxMem=   134217728 cpu:        33.4
 (Enter /share/apps/gaussian/g09/l502.exe)
 UHF open shell SCF:
 Using DIIS extrapolation, IDIIS=  1040.
 Two-electron integral symmetry not used.
 IVT=     2047274 IEndB=     2047274 NGot=   134217728 MDV=   132860315
 LenX=   132860315 LenY=   132187095
 Requested convergence on RMS density matrix=1.00D-08 within 128 cycles.
 Requested convergence on MAX density matrix=1.00D-06.
 Requested convergence on             energy=1.00D-06.
 No special actions if energy rises.
 Fock matrices will be formed incrementally for  20 cycles.

 Cycle   1  Pass 1  IDiag  1:
 FoFJK:  IHMeth= 1 ICntrl=       0 DoSepK=F KAlg= 0 I1Cent=   0 FoldK=F
 IRaf= 960000000 NMat=   1 IRICut=       1 DoRegI=T DoRafI=F ISym2E= 0.
 FoFCou: FMM=F IPFlag=           0 FMFlag=      100000 FMFlg1=           0
         NFxFlg=           0 DoJE=F BraDBF=F KetDBF=F FulRan=T
         wScrn=  0.000000 ICntrl=       0 IOpCl=  1 I1Cent=           0 NGrid=           0
         NMat0=    1 NMatS0=      1 NMatT0=    0 NMatD0=    1 NMtDS0=    0 NMtDT0=    0
 Symmetry not used in FoFCou.
 E= -383.003419635380    
 DIIS: error= 7.50D-03 at cycle   1 NSaved=   1.
 NSaved= 1 IEnMin= 1 EnMin= -383.003419635380     IErMin= 1 ErrMin= 7.50D-03
 ErrMax= 7.50D-03  0.00D+00 EMaxC= 1.00D-01 BMatC= 1.36D-01 BMatP= 1.36D-01
 IDIUse=3 WtCom= 9.25D-01 WtEn= 7.50D-02
 Coeff-Com:  0.100D+01
 Coeff-En:   0.100D+01
 Coeff:      0.100D+01
 Gap=     0.306 Goal=   None    Shift=    0.000
 Gap=     0.073 Goal=   None    Shift=    0.000
 GapD=    0.073 DampG=0.500 DampE=1.000 DampFc=0.5000 IDamp=-1.
 Damping current iteration by 5.00D-01
 RMSDP=8.86D-04 MaxDP=6.17D-02              OVMax= 1.73D-01

 Cycle   2  Pass 1  IDiag  1:
 RMSU=  4.42D-04    CP:  1.00D+00
 E= -383.020643725937     Delta-E=       -0.017224090557 Rises=F Damp=T
 DIIS: error= 1.68D-03 at cycle   2 NSaved=   2.
 NSaved= 2 IEnMin= 2 EnMin= -383.020643725937     IErMin= 2 ErrMin= 1.68D-03
 ErrMax= 1.68D-03  0.00D+00 EMaxC= 1.00D-01 BMatC= 1.02D-02 BMatP= 1.36D-01
 IDIUse=3 WtCom= 9.83D-01 WtEn= 1.68D-02
 Coeff-Com:  0.138D+00 0.862D+00
 Coeff-En:   0.203D+00 0.797D+00
 Coeff:      0.139D+00 0.861D+00
 Gap=     0.293 Goal=   None    Shift=    0.000
 Gap=     0.092 Goal=   None    Shift=    0.000
 RMSDP=2.74D-04 MaxDP=3.53D-02 DE=-1.72D-02 OVMax= 1.69D-01

 Cycle   3  Pass 1  IDiag  1:
 RMSU=  2.52D-04    CP:  9.94D-01  1.20D+00
 E= -383.047777256297     Delta-E=       -0.027133530361 Rises=F Damp=F
 DIIS: error= 1.31D-03 at cycle   3 NSaved=   3.
 NSaved= 3 IEnMin= 3 EnMin= -383.047777256297     IErMin= 3 ErrMin= 1.31D-03
 ErrMax= 1.31D-03  0.00D+00 EMaxC= 1.00D-01 BMatC= 6.51D-03 BMatP= 1.02D-02
 IDIUse=3 WtCom= 9.87D-01 WtEn= 1.31D-02
 Coeff-Com:  0.331D-01 0.440D+00 0.527D+00
 Coeff-En:   0.000D+00 0.000D+00 0.100D+01
 Coeff:      0.326D-01 0.434D+00 0.533D+00
 Gap=     0.270 Goal=   None    Shift=    0.000
 Gap=     0.097 Goal=   None    Shift=    0.000
 RMSDP=6.51D-05 MaxDP=7.48D-03 DE=-2.71D-02 OVMax= 1.47D-02

 Cycle   4  Pass 1  IDiag  1:
 RMSU=  6.08D-05    CP:  9.92D-01  1.24D+00  1.00D+00
 E= -383.049324047387     Delta-E=       -0.001546791089 Rises=F Damp=F
 DIIS: error= 5.22D-04 at cycle   4 NSaved=   4.
 NSaved= 4 IEnMin= 4 EnMin= -383.049324047387     IErMin= 4 ErrMin= 5.22D-04
 ErrMax= 5.22D-04  0.00D+00 EMaxC= 1.00D-01 BMatC= 8.07D-04 BMatP= 6.51D-03
 IDIUse=3 WtCom= 9.95D-01 WtEn= 5.22D-03
 Coeff-Com: -0.205D-01 0.492D-01 0.229D+00 0.742D+00
 Coeff-En:   0.000D+00 0.000D+00 0.000D+00 0.100D+01
 Coeff:     -0.204D-01 0.490D-01 0.228D+00 0.744D+00
 Gap=     0.266 Goal=   None    Shift=    0.000
 Gap=     0.100 Goal=   None    Shift=    0.000
 RMSDP=4.23D-05 MaxDP=6.85D-03 DE=-1.55D-03 OVMax= 1.36D-02

 Cycle   5  Pass 1  IDiag  1:
 RMSU=  4.15D-05    CP:  9.91D-01  1.24D+00  1.03D+00  9.76D-01
 E= -383.049551517538     Delta-E=       -0.000227470151 Rises=F Damp=F
 DIIS: error= 3.00D-04 at cycle   5 NSaved=   5.
 NSaved= 5 IEnMin= 5 EnMin= -383.049551517538     IErMin= 5 ErrMin= 3.00D-04
 ErrMax= 3.00D-04  0.00D+00 EMaxC= 1.00D-01 BMatC= 3.90D-04 BMatP= 8.07D-04
 IDIUse=3 WtCom= 9.97D-01 WtEn= 3.00D-03
 Coeff-Com: -0.196D-01-0.166D-01 0.535D-01 0.454D+00 0.528D+00
 Coeff-En:   0.000D+00 0.000D+00 0.000D+00 0.197D-01 0.980D+00
 Coeff:     -0.196D-01-0.165D-01 0.533D-01 0.453D+00 0.530D+00
 Gap=     0.267 Goal=   None    Shift=    0.000
 Gap=     0.101 Goal=   None    Shift=    0.000
 RMSDP=1.76D-05 MaxDP=2.49D-03 DE=-2.27D-04 OVMax= 3.61D-03

 Cycle   6  Pass 1  IDiag  1:
 RMSU=  1.28D-05    CP:  9.91D-01  1.26D+00  1.05D+00  1.10D+00  1.02D+00
 E= -383.049661800470     Delta-E=       -0.000110282932 Rises=F Damp=F
 DIIS: error= 9.29D-05 at cycle   6 NSaved=   6.
 NSaved= 6 IEnMin= 6 EnMin= -383.049661800470     IErMin= 6 ErrMin= 9.29D-05
 ErrMax= 9.29D-05  0.00D+00 EMaxC= 1.00D-01 BMatC= 2.88D-05 BMatP= 3.90D-04
 IDIUse=1 WtCom= 1.00D+00 WtEn= 0.00D+00
 Coeff-Com: -0.403D-02-0.103D-01-0.551D-01-0.863D-01 0.648D-01 0.109D+01
 Coeff:     -0.403D-02-0.103D-01-0.551D-01-0.863D-01 0.648D-01 0.109D+01
 Gap=     0.266 Goal=   None    Shift=    0.000
 Gap=     0.101 Goal=   None    Shift=    0.000
 RMSDP=1.45D-05 MaxDP=2.21D-03 DE=-1.10D-04 OVMax= 3.56D-03

 Cycle   7  Pass 1  IDiag  1:
 RMSU=  7.55D-06    CP:  9.91D-01  1.27D+00  1.07D+00  1.18D+00  1.19D+00
                    CP:  1.41D+00
 E= -383.049685878708     Delta-E=       -0.000024078238 Rises=F Damp=F
 DIIS: error= 3.46D-05 at cycle   7 NSaved=   7.
 NSaved= 7 IEnMin= 7 EnMin= -383.049685878708     IErMin= 7 ErrMin= 3.46D-05
 ErrMax= 3.46D-05  0.00D+00 EMaxC= 1.00D-01 BMatC= 7.80D-06 BMatP= 2.88D-05
 IDIUse=1 WtCom= 1.00D+00 WtEn= 0.00D+00
 Coeff-Com:  0.338D-03-0.222D-02-0.310D-01-0.895D-01-0.553D-01 0.456D+00
 Coeff-Com:  0.722D+00
 Coeff:      0.338D-03-0.222D-02-0.310D-01-0.895D-01-0.553D-01 0.456D+00
 Coeff:      0.722D+00
 Gap=     0.266 Goal=   None    Shift=    0.000
 Gap=     0.102 Goal=   None    Shift=    0.000
 RMSDP=4.85D-06 MaxDP=7.37D-04 DE=-2.41D-05 OVMax= 1.34D-03

 Cycle   8  Pass 1  IDiag  1:
 RMSU=  2.86D-06    CP:  9.91D-01  1.28D+00  1.07D+00  1.20D+00  1.25D+00
                    CP:  1.57D+00  1.21D+00
 E= -383.049689313089     Delta-E=       -0.000003434381 Rises=F Damp=F
 DIIS: error= 2.34D-05 at cycle   8 NSaved=   8.
 NSaved= 8 IEnMin= 8 EnMin= -383.049689313089     IErMin= 8 ErrMin= 2.34D-05
 ErrMax= 2.34D-05  0.00D+00 EMaxC= 1.00D-01 BMatC= 3.29D-06 BMatP= 7.80D-06
 IDIUse=1 WtCom= 1.00D+00 WtEn= 0.00D+00
 Coeff-Com:  0.168D-02 0.179D-02-0.367D-02-0.286D-01-0.604D-01-0.501D-01
 Coeff-Com:  0.446D+00 0.693D+00
 Coeff:      0.168D-02 0.179D-02-0.367D-02-0.286D-01-0.604D-01-0.501D-01
 Coeff:      0.446D+00 0.693D+00
 Gap=     0.266 Goal=   None    Shift=    0.000
 Gap=     0.102 Goal=   None    Shift=    0.000
 RMSDP=2.87D-06 MaxDP=4.28D-04 DE=-3.43D-06 OVMax= 7.19D-04

 Cycle   9  Pass 1  IDiag  1:
 RMSU=  1.56D-06    CP:  9.91D-01  1.28D+00  1.08D+00  1.22D+00  1.27D+00
                    CP:  1.68D+00  1.40D+00  1.14D+00
 E= -383.049690443380     Delta-E=       -0.000001130290 Rises=F Damp=F
 DIIS: error= 8.39D-06 at cycle   9 NSaved=   9.
 NSaved= 9 IEnMin= 9 EnMin= -383.049690443380     IErMin= 9 ErrMin= 8.39D-06
 ErrMax= 8.39D-06  0.00D+00 EMaxC= 1.00D-01 BMatC= 5.16D-07 BMatP= 3.29D-06
 IDIUse=1 WtCom= 1.00D+00 WtEn= 0.00D+00
 Coeff-Com:  0.969D-03 0.110D-02 0.372D-02 0.340D-02-0.216D-01-0.113D+00
 Coeff-Com:  0.982D-01 0.364D+00 0.664D+00
 Coeff:      0.969D-03 0.110D-02 0.372D-02 0.340D-02-0.216D-01-0.113D+00
 Coeff:      0.982D-01 0.364D+00 0.664D+00
 Gap=     0.266 Goal=   None    Shift=    0.000
 Gap=     0.102 Goal=   None    Shift=    0.000
 RMSDP=1.01D-06 MaxDP=1.27D-04 DE=-1.13D-06 OVMax= 2.25D-04

 Cycle  10  Pass 1  IDiag  1:
 RMSU=  6.35D-07    CP:  9.91D-01  1.28D+00  1.08D+00  1.22D+00  1.27D+00
                    CP:  1.70D+00  1.46D+00  1.29D+00  1.13D+00
 E= -383.049690590957     Delta-E=       -0.000000147577 Rises=F Damp=F
 DIIS: error= 3.85D-06 at cycle  10 NSaved=  10.
 NSaved=10 IEnMin=10 EnMin= -383.049690590957     IErMin=10 ErrMin= 3.85D-06
 ErrMax= 3.85D-06  0.00D+00 EMaxC= 1.00D-01 BMatC= 9.77D-08 BMatP= 5.16D-07
 IDIUse=1 WtCom= 1.00D+00 WtEn= 0.00D+00
 Coeff-Com:  0.221D-03 0.813D-04 0.238D-02 0.701D-02 0.557D-03-0.452D-01
 Coeff-Com: -0.311D-01 0.577D-01 0.356D+00 0.653D+00
 Coeff:      0.221D-03 0.813D-04 0.238D-02 0.701D-02 0.557D-03-0.452D-01
 Coeff:     -0.311D-01 0.577D-01 0.356D+00 0.653D+00
 Gap=     0.266 Goal=   None    Shift=    0.000
 Gap=     0.102 Goal=   None    Shift=    0.000
 RMSDP=3.67D-07 MaxDP=4.10D-05 DE=-1.48D-07 OVMax= 9.36D-05

 Cycle  11  Pass 1  IDiag  1:
 RMSU=  2.47D-07    CP:  9.91D-01  1.28D+00  1.08D+00  1.22D+00  1.27D+00
                    CP:  1.70D+00  1.48D+00  1.32D+00  1.25D+00  1.09D+00
 E= -383.049690617639     Delta-E=       -0.000000026682 Rises=F Damp=F
 DIIS: error= 8.78D-07 at cycle  11 NSaved=  11.
 NSaved=11 IEnMin=11 EnMin= -383.049690617639     IErMin=11 ErrMin= 8.78D-07
 ErrMax= 8.78D-07  0.00D+00 EMaxC= 1.00D-01 BMatC= 7.40D-09 BMatP= 9.77D-08
 IDIUse=1 WtCom= 1.00D+00 WtEn= 0.00D+00
 Coeff-Com: -0.161D-04-0.436D-04 0.507D-03 0.191D-02 0.257D-02-0.272D-02
 Coeff-Com: -0.236D-01-0.230D-01 0.401D-01 0.235D+00 0.769D+00
 Coeff:     -0.161D-04-0.436D-04 0.507D-03 0.191D-02 0.257D-02-0.272D-02
 Coeff:     -0.236D-01-0.230D-01 0.401D-01 0.235D+00 0.769D+00
 Gap=     0.266 Goal=   None    Shift=    0.000
 Gap=     0.102 Goal=   None    Shift=    0.000
 RMSDP=1.39D-07 MaxDP=1.87D-05 DE=-2.67D-08 OVMax= 5.06D-05

 Cycle  12  Pass 1  IDiag  1:
 RMSU=  9.49D-08    CP:  9.91D-01  1.28D+00  1.08D+00  1.22D+00  1.27D+00
                    CP:  1.71D+00  1.48D+00  1.34D+00  1.29D+00  1.17D+00
                    CP:  1.09D+00
 E= -383.049690620214     Delta-E=       -0.000000002575 Rises=F Damp=F
 DIIS: error= 5.29D-07 at cycle  12 NSaved=  12.
 NSaved=12 IEnMin=12 EnMin= -383.049690620214     IErMin=12 ErrMin= 5.29D-07
 ErrMax= 5.29D-07  0.00D+00 EMaxC= 1.00D-01 BMatC= 1.43D-09 BMatP= 7.40D-09
 IDIUse=1 WtCom= 1.00D+00 WtEn= 0.00D+00
 Coeff-Com: -0.424D-04-0.337D-04-0.154D-03-0.343D-03 0.960D-03 0.624D-02
 Coeff-Com: -0.513D-02-0.171D-01-0.411D-01 0.812D-03 0.331D+00 0.724D+00
 Coeff:     -0.424D-04-0.337D-04-0.154D-03-0.343D-03 0.960D-03 0.624D-02
 Coeff:     -0.513D-02-0.171D-01-0.411D-01 0.812D-03 0.331D+00 0.724D+00
 Gap=     0.266 Goal=   None    Shift=    0.000
 Gap=     0.102 Goal=   None    Shift=    0.000
 RMSDP=5.18D-08 MaxDP=6.88D-06 DE=-2.57D-09 OVMax= 2.72D-05

 Cycle  13  Pass 1  IDiag  1:
 RMSU=  3.83D-08    CP:  9.91D-01  1.28D+00  1.08D+00  1.22D+00  1.27D+00
                    CP:  1.70D+00  1.48D+00  1.34D+00  1.30D+00  1.20D+00
                    CP:  1.15D+00  1.15D+00
 E= -383.049690620767     Delta-E=       -0.000000000553 Rises=F Damp=F
 DIIS: error= 1.30D-07 at cycle  13 NSaved=  13.
 NSaved=13 IEnMin=13 EnMin= -383.049690620767     IErMin=13 ErrMin= 1.30D-07
 ErrMax= 1.30D-07  0.00D+00 EMaxC= 1.00D-01 BMatC= 1.19D-10 BMatP= 1.43D-09
 IDIUse=1 WtCom= 1.00D+00 WtEn= 0.00D+00
 Coeff-Com: -0.123D-04-0.546D-05-0.103D-03-0.264D-03-0.956D-04 0.189D-02
 Coeff-Com:  0.121D-02-0.109D-02-0.163D-01-0.282D-01-0.123D-01 0.175D+00
 Coeff-Com:  0.880D+00
 Coeff:     -0.123D-04-0.546D-05-0.103D-03-0.264D-03-0.956D-04 0.189D-02
 Coeff:      0.121D-02-0.109D-02-0.163D-01-0.282D-01-0.123D-01 0.175D+00
 Coeff:      0.880D+00
 Gap=     0.266 Goal=   None    Shift=    0.000
 Gap=     0.102 Goal=   None    Shift=    0.000
 RMSDP=2.38D-08 MaxDP=2.64D-06 DE=-5.53D-10 OVMax= 1.40D-05

 Cycle  14  Pass 1  IDiag  1:
 RMSU=  1.55D-08    CP:  9.91D-01  1.28D+00  1.08D+00  1.22D+00  1.27D+00
                    CP:  1.71D+00  1.48D+00  1.34D+00  1.31D+00  1.21D+00
                    CP:  1.18D+00  1.27D+00  1.25D+00
 E= -383.049690620821     Delta-E=       -0.000000000054 Rises=F Damp=F
 DIIS: error= 8.80D-08 at cycle  14 NSaved=  14.
 NSaved=14 IEnMin=14 EnMin= -383.049690620821     IErMin=14 ErrMin= 8.80D-08
 ErrMax= 8.80D-08  0.00D+00 EMaxC= 1.00D-01 BMatC= 3.42D-11 BMatP= 1.19D-10
 IDIUse=1 WtCom= 1.00D+00 WtEn= 0.00D+00
 Coeff-Com:  0.695D-06 0.267D-05-0.187D-04-0.147D-04-0.196D-03-0.235D-03
 Coeff-Com:  0.967D-03 0.252D-02 0.551D-04-0.789D-02-0.531D-01-0.559D-01
 Coeff-Com:  0.299D+00 0.815D+00
 Coeff:      0.695D-06 0.267D-05-0.187D-04-0.147D-04-0.196D-03-0.235D-03
 Coeff:      0.967D-03 0.252D-02 0.551D-04-0.789D-02-0.531D-01-0.559D-01
 Coeff:      0.299D+00 0.815D+00
 Gap=     0.266 Goal=   None    Shift=    0.000
 Gap=     0.102 Goal=   None    Shift=    0.000
 RMSDP=1.17D-08 MaxDP=9.61D-07 DE=-5.42D-11 OVMax= 6.21D-06

 Cycle  15  Pass 1  IDiag  1:
 RMSU=  6.91D-09    CP:  9.91D-01  1.28D+00  1.08D+00  1.22D+00  1.27D+00
                    CP:  1.71D+00  1.48D+00  1.34D+00  1.31D+00  1.21D+00
                    CP:  1.19D+00  1.31D+00  1.41D+00  1.33D+00
 E= -383.049690620864     Delta-E=       -0.000000000042 Rises=F Damp=F
 DIIS: error= 4.71D-08 at cycle  15 NSaved=  15.
 NSaved=15 IEnMin=15 EnMin= -383.049690620864     IErMin=15 ErrMin= 4.71D-08
 ErrMax= 4.71D-08  0.00D+00 EMaxC= 1.00D-01 BMatC= 8.77D-12 BMatP= 3.42D-11
 IDIUse=1 WtCom= 1.00D+00 WtEn= 0.00D+00
 Coeff-Com:  0.135D-05 0.254D-05 0.893D-05 0.484D-04-0.418D-04-0.320D-03
 Coeff-Com: -0.107D-03 0.956D-03 0.187D-02 0.428D-02-0.941D-02-0.424D-01
 Coeff-Com: -0.827D-01 0.887D-01 0.104D+01
 Coeff:      0.135D-05 0.254D-05 0.893D-05 0.484D-04-0.418D-04-0.320D-03
 Coeff:     -0.107D-03 0.956D-03 0.187D-02 0.428D-02-0.941D-02-0.424D-01
 Coeff:     -0.827D-01 0.887D-01 0.104D+01
 Gap=     0.266 Goal=   None    Shift=    0.000
 Gap=     0.102 Goal=   None    Shift=    0.000
 RMSDP=8.43D-09 MaxDP=7.17D-07 DE=-4.24D-11 OVMax= 6.22D-06

 SCF Done:  E(UPBE1PBE) =  -383.049690621     A.U. after   15 cycles
            NFock= 15  Conv=0.84D-08     -V/T= 2.0070
 <Sx>= 0.0000 <Sy>= 0.0000 <Sz>= 0.5000 <S**2>= 0.7630 S= 0.5065
 <L.S>= 0.000000000000E+00
 KE= 3.803851888675D+02 PE=-1.802031203758D+03 EE= 5.691883830147D+02
 Annihilation of the first spin contaminant:
 S**2 before annihilation     0.7630,   after     0.7501
 Leave Link  502 at Sun Nov 10 00:56:10 2019, MaxMem=   134217728 cpu:     24544.3
[...]
     5  N   -0.001845   0.000102  -0.007078  -0.004711  -0.005206   0.003143
     6  C   -0.001697  -0.000084   0.004311  -0.000055  -0.000794   0.002305
     7  C    0.002621  -0.000186  -0.001366   0.000641  -0.000072   0.000903
     8  H   -0.000186  -0.000049  -0.000509   0.000125  -0.000130  -0.000002
     9  H   -0.001366  -0.000509   0.003740   0.000386   0.001364  -0.000020
    10  H    0.000641   0.000125   0.000386   0.001384   0.000632   0.000432
    11  H   -0.000072  -0.000130   0.001364   0.000632   0.002750   0.001072
    12  H    0.000903  -0.000002  -0.000020   0.000432   0.001072   0.004688
    13  H   -0.000210  -0.000013   0.000032  -0.000028  -0.000021  -0.000861
    14  C    0.000091  -0.000008  -0.000025   0.000017  -0.000024  -0.000086
    15  H   -0.000052   0.000005  -0.000002  -0.000034  -0.000011  -0.000042
    16  H    0.000009   0.000000  -0.000014  -0.000004  -0.000008   0.000027
    17  H    0.000023  -0.000005   0.000010   0.000053   0.000022   0.000042
    18  C    0.000713   0.000125  -0.000724  -0.000850  -0.001053   0.000352
    19  H   -0.000042   0.000006  -0.000112  -0.000347  -0.000227   0.000001
    20  H    0.000226  -0.000017   0.001017   0.001789   0.000333   0.000034
    21  H   -0.000183   0.000000  -0.000025  -0.000440  -0.000037   0.000021
    22  H    0.001397   0.000387  -0.002091  -0.000208  -0.002116   0.000062
              13         14         15         16         17         18
     1  C    0.000313  -0.000569  -0.000346   0.001251   0.000607   0.025306
     2  N    0.000126  -0.003397  -0.000407  -0.001171  -0.000273  -0.002505
     3  C    0.021564  -0.007098  -0.000551   0.000903   0.000765  -0.003829
     4  C   -0.009049   0.000915  -0.000197   0.001620  -0.001155   0.001306
     5  N   -0.002488   0.005574   0.000364  -0.001366  -0.000360   0.005364
     6  C   -0.000219   0.000188  -0.000106   0.000003   0.000079   0.000891
     7  C   -0.000210   0.000091  -0.000052   0.000009   0.000023   0.000713
     8  H   -0.000013  -0.000008   0.000005   0.000000  -0.000005   0.000125
     9  H    0.000032  -0.000025  -0.000002  -0.000014   0.000010  -0.000724
    10  H   -0.000028   0.000017  -0.000034  -0.000004   0.000053  -0.000850
    11  H   -0.000021  -0.000024  -0.000011  -0.000008   0.000022  -0.001053
    12  H   -0.000861  -0.000086  -0.000042   0.000027   0.000042   0.000352
    13  H    0.001870   0.000796   0.000203   0.000145  -0.000086  -0.000400
    14  C    0.000796   0.014762   0.000132  -0.006563  -0.000228  -0.000637
    15  H    0.000203   0.000132  -0.000281  -0.000886   0.000412   0.000511
    16  H    0.000145  -0.006563  -0.000886   0.007042  -0.000608  -0.000370
    17  H   -0.000086  -0.000228   0.000412  -0.000608  -0.000260  -0.000083
    18  C   -0.000400  -0.000637   0.000511  -0.000370  -0.000083  -0.055419
    19  H    0.000003  -0.000119   0.000093   0.000033  -0.000231   0.012328
    20  H   -0.000045   0.000291  -0.000379   0.000027   0.000309   0.001846
    21  H   -0.000001  -0.000256   0.000348  -0.000001   0.000037   0.002156
    22  H   -0.000021   0.000015   0.000001   0.000003  -0.000002   0.000199
              19         20         21         22
     1  C    0.000417   0.007507  -0.004230  -0.000469
     2  N   -0.001168   0.001752  -0.001498   0.000049
     3  C   -0.000473   0.000989   0.000039  -0.000026
     4  C    0.001492  -0.002150   0.000724   0.000226
     5  N    0.004690  -0.009793   0.000157   0.003883
     6  C    0.000331   0.000499   0.000048  -0.003719
     7  C   -0.000042   0.000226  -0.000183   0.001397
     8  H    0.000006  -0.000017   0.000000   0.000387
     9  H   -0.000112   0.001017  -0.000025  -0.002091
    10  H   -0.000347   0.001789  -0.000440  -0.000208
    11  H   -0.000227   0.000333  -0.000037  -0.002116
    12  H    0.000001   0.000034   0.000021   0.000062
    13  H    0.000003  -0.000045  -0.000001  -0.000021
    14  C   -0.000119   0.000291  -0.000256   0.000015
    15  H    0.000093  -0.000379   0.000348   0.000001
    16  H    0.000033   0.000027  -0.000001   0.000003
    17  H   -0.000231   0.000309   0.000037  -0.000002
    18  C    0.012328   0.001846   0.002156   0.000199
    19  H    0.026389  -0.002948  -0.001299   0.000037
    20  H   -0.002948   0.030162  -0.004061  -0.000112
    21  H   -0.001299  -0.004061   0.004235  -0.000020
    22  H    0.000037  -0.000112  -0.000020   0.003480
 Mulliken charges and spin densities:
               1          2
     1  C    0.042861   0.287458
     2  N    0.066142  -0.046094
     3  C   -0.182552   0.383503
     4  C   -0.399376   0.351885
     5  N    0.247593  -0.044504
     6  C   -0.332326   0.008925
     7  C   -0.659800   0.002704
     8  H    0.235329  -0.000270
     9  H    0.265903  -0.000324
    10  H    0.223360  -0.000876
    11  H    0.188095  -0.000078
    12  H    0.536438  -0.003645
    13  H    0.673849   0.011610
    14  C   -0.752488   0.003768
    15  H    0.356084  -0.001225
    16  H    0.248477   0.000071
    17  H    0.352019  -0.000933
    18  C   -0.320190  -0.014772
    19  H    0.355742   0.038854
    20  H    0.358831   0.027275
    21  H    0.215984  -0.004286
    22  H    0.280024   0.000955
 Sum of Mulliken charges =   2.00000   1.00000
 Mulliken charges and spin densities with hydrogens summed into heavy atoms:
               1          2
     1  C    0.042861   0.287458
     2  N    0.066142  -0.046094
     3  C    0.491297   0.395112
     4  C    0.137061   0.348239
     5  N    0.247593  -0.044504
     6  C    0.079129   0.007971
     7  C    0.121456   0.003065
    14  C    0.204092   0.001681
    18  C    0.610368   0.047072
 Electronic spatial extent (au):  <R**2>=           1457.7973
 Charge=              2.0000 electrons
 Dipole moment (field-independent basis, Debye):
    X=             11.2785    Y=             -1.5484    Z=             -0.7049  Tot=             11.4061
 Quadrupole moment (field-independent basis, Debye-Ang):
   XX=              1.4738   YY=            -22.6263   ZZ=            -46.9723
   XY=             -0.2478   XZ=              3.1293   YZ=              1.2668
 Traceless Quadrupole moment (field-independent basis, Debye-Ang):
   XX=             24.1821   YY=              0.0820   ZZ=            -24.2640
   XY=             -0.2478   XZ=              3.1293   YZ=              1.2668
 Octapole moment (field-independent basis, Debye-Ang**2):
  XXX=              3.7775  YYY=              1.3840  ZZZ=              2.0665  XYY=             -8.2650
  XXY=             -2.0252  XXZ=             15.9082  XZZ=            -43.8094  YZZ=              7.1193
  YYZ=             -3.8525  XYZ=              1.3566
 Hexadecapole moment (field-independent basis, Debye-Ang**3):
 XXXX=           -629.2265 YYYY=           -314.5684 ZZZZ=           -118.0246 XXXY=            -32.3902
 XXXZ=             39.8573 YYYX=            -57.8444 YYYZ=             -2.3226 ZZZX=             -6.0188
 ZZZY=             -7.6507 XXYY=           -186.7023 XXZZ=           -211.0050 YYZZ=            -82.8486
 XXYZ=              0.7528 YYXZ=             -0.8689 ZZXY=             -4.5068
 N-N= 4.694079412546D+02 E-N=-1.802031204193D+03  KE= 3.803851888675D+02
                          Isotropic Fermi Contact Couplings
        Atom                 a.u.       MegaHertz       Gauss      10(-4) cm-1
     1  C(13)              0.01929      21.68392       7.73736       7.23298
     2  N(14)             -0.01856      -5.99611      -2.13956      -2.00009
     3  C(13)              0.00406       4.56786       1.62993       1.52367
     4  C(13)              0.00282       3.17234       1.13197       1.05818
     5  N(14)             -0.01673      -5.40540      -1.92878      -1.80305
     6  C(13)             -0.00035      -0.39617      -0.14136      -0.13215
     7  C(13)             -0.00148      -1.65819      -0.59168      -0.55311
     8  H(1)               0.00070       3.11761       1.11244       1.03992
     9  H(1)              -0.00001      -0.02723      -0.00972      -0.00908
    10  H(1)               0.00056       2.50210       0.89281       0.83461
    11  H(1)              -0.00053      -2.35172      -0.83915      -0.78445
    12  H(1)              -0.00643     -28.75285     -10.25973      -9.59092
    13  H(1)              -0.00676     -30.19550     -10.77451     -10.07214
    14  C(13)             -0.00011      -0.12121      -0.04325      -0.04043
    15  H(1)               0.00007       0.32374       0.11552       0.10799
    16  H(1)              -0.00037      -1.65564      -0.59077      -0.55226
    17  H(1)               0.00030       1.33013       0.47462       0.44368
    18  C(13)             -0.01231     -13.84064      -4.93869      -4.61674
    19  H(1)               0.01797      80.30542      28.65497      26.78700
    20  H(1)               0.01249      55.81117      19.91481      18.61660
    21  H(1)               0.00043       1.90420       0.67947       0.63517
    22  H(1)              -0.00004      -0.19774      -0.07056      -0.06596
 --------------------------------------------------------
       Center         ----  Spin Dipole Couplings  ----
                      3XX-RR        3YY-RR        3ZZ-RR
 --------------------------------------------------------
     1   Atom       -0.190905     -0.205925      0.396830
     2   Atom        0.021471      0.025515     -0.046986
     3   Atom       -0.199698     -0.248367      0.448066
     4   Atom       -0.193483     -0.233059      0.426543
     5   Atom        0.021211      0.013067     -0.034279
     6   Atom        0.004030     -0.003146     -0.000884
     7   Atom        0.002673     -0.001035     -0.001638
     8   Atom        0.003880     -0.001374     -0.002506
     9   Atom        0.002630     -0.001511     -0.001119
    10   Atom        0.004080     -0.001289     -0.002792
    11   Atom        0.004654     -0.002403     -0.002251
    12   Atom       -0.008638      0.013796     -0.005157
    13   Atom        0.019604     -0.014207     -0.005397
    14   Atom        0.001578     -0.002479      0.000901
    15   Atom        0.001109      0.000508     -0.001617
    16   Atom        0.004355     -0.001458     -0.002897
    17   Atom        0.002487      0.000799     -0.003286
    18   Atom       -0.021530     -0.016887      0.038417
    19   Atom       -0.004851      0.002255      0.002596
    20   Atom        0.005376      0.000742     -0.006118
    21   Atom       -0.001558      0.005322     -0.003764
    22   Atom        0.002690     -0.001220     -0.001470
 --------------------------------------------------------
                        XY            XZ            YZ
 --------------------------------------------------------
     1   Atom        0.003528     -0.131774     -0.030714
     2   Atom        0.006467      0.016448      0.005195
     3   Atom        0.008852     -0.143884     -0.041362
     4   Atom        0.016816     -0.136462     -0.041489
     5   Atom       -0.004340      0.010652     -0.002177
     6   Atom        0.000507      0.000154     -0.004003
     7   Atom        0.004376     -0.004012     -0.005273
     8   Atom       -0.000105     -0.001992     -0.000389
     9   Atom       -0.000882     -0.002545      0.000608
    10   Atom       -0.001896      0.002882     -0.000733
    11   Atom        0.000069      0.003116      0.000117
    12   Atom        0.029839      0.001328      0.007593
    13   Atom       -0.028440      0.003724     -0.006566
    14   Atom        0.003927      0.000550      0.000323
    15   Atom        0.002807      0.002708      0.002451
    16   Atom        0.003028      0.001788      0.000773
    17   Atom        0.003686     -0.000525     -0.000887
    18   Atom       -0.000752     -0.015396     -0.002733
    19   Atom       -0.003449      0.005158     -0.006725
    20   Atom       -0.005730     -0.003883      0.002770
    21   Atom        0.003598      0.000127      0.001662
    22   Atom       -0.000428     -0.000108     -0.000309
 --------------------------------------------------------


 ---------------------------------------------------------------------------------
              Anisotropic Spin Dipole Couplings in Principal Axis System
 ---------------------------------------------------------------------------------

       Atom             a.u.   MegaHertz   Gauss  10(-4) cm-1        Axes

              Baa    -0.2198   -29.496   -10.525    -9.839  0.9486  0.2330  0.2143
     1 C(13)  Bbb    -0.2067   -27.738    -9.898    -9.253 -0.2380  0.9713 -0.0025
              Bcc     0.4265    57.235    20.423    19.092 -0.2087 -0.0486  0.9768
 
              Baa    -0.0509    -1.963    -0.701    -0.655 -0.2173 -0.0479  0.9749
     2 N(14)  Bbb     0.0180     0.694     0.248     0.232  0.7083 -0.6950  0.1237
              Bcc     0.0329     1.269     0.453     0.423  0.6716  0.7175  0.1849
 
              Baa    -0.2508   -33.658   -12.010   -11.227 -0.0156  0.9983  0.0559
     3 C(13)  Bbb    -0.2302   -30.893   -11.024   -10.305  0.9782  0.0037  0.2077
              Bcc     0.4810    64.551    23.033    21.532 -0.2072 -0.0579  0.9766
 
              Baa    -0.2395   -32.136   -11.467   -10.719 -0.4185  0.9077 -0.0292
     4 C(13)  Bbb    -0.2186   -29.331   -10.466    -9.784  0.8845  0.4147  0.2138
              Bcc     0.4581    61.467    21.933    20.503 -0.2062 -0.0636  0.9764
 
              Baa    -0.0363    -1.400    -0.499    -0.467 -0.1801  0.0275  0.9833
     5 N(14)  Bbb     0.0113     0.435     0.155     0.145  0.3633  0.9308  0.0405
              Bcc     0.0250     0.965     0.344     0.322  0.9141 -0.3645  0.1776
 
              Baa    -0.0062    -0.832    -0.297    -0.277 -0.0486  0.7972  0.6018
     6 C(13)  Bbb     0.0021     0.286     0.102     0.095  0.0947 -0.5961  0.7973
              Bcc     0.0041     0.546     0.195     0.182  0.9943  0.0957 -0.0465
 
              Baa    -0.0066    -0.888    -0.317    -0.296 -0.0148  0.6926  0.7212
     7 C(13)  Bbb    -0.0027    -0.357    -0.127    -0.119  0.7437 -0.4745  0.4710
              Bcc     0.0093     1.245     0.444     0.415  0.6684  0.5433 -0.5080
 
              Baa    -0.0032    -1.689    -0.603    -0.564  0.2685  0.2192  0.9380
     8 H(1)   Bbb    -0.0013    -0.685    -0.244    -0.228 -0.0614  0.9757 -0.2104
              Bcc     0.0045     2.374     0.847     0.792  0.9613  0.0011 -0.2754
 
              Baa    -0.0024    -1.298    -0.463    -0.433  0.4140 -0.1909  0.8900
     9 H(1)   Bbb    -0.0017    -0.898    -0.320    -0.300  0.2503  0.9639  0.0903
              Bcc     0.0041     2.196     0.784     0.733  0.8752 -0.1854 -0.4469
 
              Baa    -0.0038    -2.049    -0.731    -0.684 -0.3377  0.0194  0.9410
    10 H(1)   Bbb    -0.0019    -1.002    -0.357    -0.334  0.2686  0.9602  0.0766
              Bcc     0.0057     3.051     1.089     1.018  0.9021 -0.2786  0.3295
 
              Baa    -0.0035    -1.844    -0.658    -0.615 -0.3569 -0.0802  0.9307
    11 H(1)   Bbb    -0.0024    -1.279    -0.456    -0.427 -0.0408  0.9967  0.0702
              Bcc     0.0059     3.123     1.114     1.042  0.9332  0.0129  0.3590
 
              Baa    -0.0297   -15.866    -5.661    -5.292  0.8063 -0.5761  0.1344
    12 H(1)   Bbb    -0.0059    -3.161    -1.128    -1.054 -0.2073 -0.0623  0.9763
              Bcc     0.0357    19.027     6.789     6.347  0.5541  0.8150  0.1696
 
              Baa    -0.0310   -16.532    -5.899    -5.515  0.4757  0.8662  0.1530
    13 H(1)   Bbb    -0.0058    -3.095    -1.104    -1.032 -0.2082 -0.0581  0.9764
              Bcc     0.0368    19.627     7.003     6.547  0.8546 -0.4963  0.1527
 
              Baa    -0.0049    -0.654    -0.233    -0.218 -0.5202  0.8541  0.0017
    14 C(13)  Bbb     0.0008     0.104     0.037     0.035 -0.1663 -0.1033  0.9806
              Bcc     0.0041     0.550     0.196     0.183  0.8377  0.5098  0.1958
 
              Baa    -0.0035    -1.862    -0.665    -0.621 -0.3343 -0.3107  0.8898
    15 H(1)   Bbb    -0.0020    -1.075    -0.384    -0.359 -0.6715  0.7410  0.0065
              Bcc     0.0055     2.937     1.048     0.980  0.6613  0.5953  0.4563
 
              Baa    -0.0033    -1.772    -0.632    -0.591 -0.1887 -0.0985  0.9771
    16 H(1)   Bbb    -0.0027    -1.466    -0.523    -0.489 -0.3955  0.9183  0.0162
              Bcc     0.0061     3.238     1.155     1.080  0.8989  0.3834  0.2123
 
              Baa    -0.0035    -1.862    -0.664    -0.621 -0.0813  0.2685  0.9598
    17 H(1)   Bbb    -0.0020    -1.089    -0.388    -0.363 -0.6277  0.7342 -0.2585
              Bcc     0.0055     2.950     1.053     0.984  0.7742  0.6236 -0.1088
 
              Baa    -0.0255    -3.418    -1.220    -1.140  0.9581  0.1595  0.2377
    18 C(13)  Bbb    -0.0168    -2.250    -0.803    -0.751 -0.1649  0.9863  0.0028
              Bcc     0.0422     5.669     2.023     1.891 -0.2340 -0.0419  0.9713
 
              Baa    -0.0075    -3.996    -1.426    -1.333  0.8907  0.0016 -0.4545
    19 H(1)   Bbb    -0.0040    -2.112    -0.754    -0.705  0.2876  0.7724  0.5663
              Bcc     0.0114     6.108     2.180     2.037  0.3520 -0.6351  0.6876
 
              Baa    -0.0075    -3.992    -1.424    -1.331  0.2118 -0.1762  0.9613
    20 H(1)   Bbb    -0.0031    -1.664    -0.594    -0.555  0.5672  0.8232  0.0260
              Bcc     0.0106     5.655     2.018     1.886  0.7959 -0.5397 -0.2743
 
              Baa    -0.0042    -2.262    -0.807    -0.755  0.3371 -0.2829  0.8980
    21 H(1)   Bbb    -0.0028    -1.521    -0.543    -0.507  0.8605 -0.2943 -0.4158
              Bcc     0.0071     3.783     1.350     1.262  0.3819  0.9129  0.1442
 
              Baa    -0.0017    -0.909    -0.324    -0.303  0.0767  0.5837  0.8084
    22 H(1)   Bbb    -0.0010    -0.552    -0.197    -0.184  0.0756  0.8050 -0.5884
              Bcc     0.0027     1.461     0.521     0.487  0.9942 -0.1062 -0.0176
 

 ---------------------------------------------------------------------------------

 No NMR shielding tensors so no spin-rotation constants.
 Leave Link  601 at Sun Nov 10 00:56:11 2019, MaxMem=   134217728 cpu:         8.0
 (Enter /share/apps/gaussian/g09/l9999.exe)
 1\1\GINC-COMPUTE-2-35\SP\UPBE1PBE\Aug-CC-pVTZ\C7H13N2\HTJUNG\10-Nov-20
 19\0\\#P upbe1pbe/aug-cc-pvtz symmetry=none guess=read\\Ionization pot
 ential\\2,2\C,0,1.1530248131,0.5292964636,-0.1255735835\N,0,2.37667659
 5,-0.0151845146,0.1024828973\C,0,2.2873282689,-1.3947170763,0.00478575
 8\C,0,0.9812655091,-1.6944652812,-0.2901312982\N,0,0.2965557987,-0.493
 9541388,-0.3716744915\C,0,-1.1526697918,-0.3678346578,-0.6257207132\C,
 0,-1.9939740835,-0.5024992919,0.640679118\H,0,-1.8431336795,-1.4864252
 158,1.1268217682\H,0,-1.7619542808,0.2908590507,1.3788608715\H,0,-1.31
 779759,0.6068430479,-1.1242282662\H,0,-1.4106971547,-1.150298101,-1.36
 62535997\H,0,0.4900241452,-2.6590043546,-0.4524028998\H,0,3.1550079017
 ,-2.0462185316,0.1479953053\C,0,3.6052636907,0.7286499899,0.3910784787
 \H,0,3.48734027,1.3310507799,1.3120092193\H,0,4.4241598395,0.004890623
 7,0.5457923299\H,0,3.8693108074,1.3883827714,-0.4573479317\C,0,0.81658
 45854,1.9769865266,-0.1355902365\H,0,0.5952590126,2.3307509808,-1.1650
 415439\H,0,-0.0714804436,2.1885267239,0.4922513497\H,0,1.6557229323,2.
 5809535735,0.2526028632\H,0,-3.0661190727,-0.4165203607,0.3771456081\\
 Version=EM64L-G09RevD.01\HF=-383.0496906\S2=0.762971\S2-1=0.\S2A=0.750
 116\RMSD=8.426e-09\Dipole=1.0906195,-0.3381797,-0.18644\Quadrupole=17.
 9787885,0.0609322,-18.0397207,-0.1842545,2.3265556,0.9418495\PG=Unknow
 n\\@


 IF YOU'RE NOT PART OF THE SOLUTION,
 THEN YOU'RE PART OF THE PRECIPITATE.
 Job cpu time:       0 days  6 hours 49 minutes 59.6 seconds.
 File lengths (MBytes):  RWF=    474 Int=      0 D2E=      0 Chk=     26 Scr=      1
 Normal termination of Gaussian 09 at Sun Nov 10 00:56:11 2019.
 
 
-----Phoenix cluster job statistics-----
Time info:

real	81m57.854s
user	655m30.803s
sys	0m3.750s
 
Disk space usage:
26M	/scratch/2863144.phoenix.chem.wisc.edu
